<?xml version="1.0" encoding="UTF-8"?>

<!-- generated on jeu. 31 janv. 2019 14:12:14 CET by Eclipse SUMO GUI Version 1.0.1
<configuration xmlns:xsi="http://www.w3.org/2001/XMLSchema-instance" xsi:noNamespaceSchemaLocation="http://sumo.dlr.de/xsd/sumoConfiguration.xsd">

    <input>
        <net-file value="/home/joseph/Projects/F2MD/omnetpp-workspace/veins-f2md/networks/LuSTScenario/lust.net.xml"/>
        <route-files value="/home/joseph/Projects/F2MD/omnetpp-workspace/veins-f2md/networks/LuSTScenario/buslines.rou.xml,/home/joseph/Projects/F2MD/omnetpp-workspace/veins-f2md/networks/LuSTScenario/due.local.actuated.0.rou.xml,/home/joseph/Projects/F2MD/omnetpp-workspace/veins-f2md/networks/LuSTScenario/due.local.actuated.1.rou.xml,/home/joseph/Projects/F2MD/omnetpp-workspace/veins-f2md/networks/LuSTScenario/due.local.actuated.2.rou.xml,/home/joseph/Projects/F2MD/omnetpp-workspace/veins-f2md/networks/LuSTScenario/transit.rou.xml"/>
        <additional-files value="/home/joseph/Projects/F2MD/omnetpp-workspace/veins-f2md/networks/LuSTScenario/vtypes.add.xml,/home/joseph/Projects/F2MD/omnetpp-workspace/veins-f2md/networks/LuSTScenario/e1detectors.add.xml,/home/joseph/Projects/F2MD/omnetpp-workspace/veins-f2md/networks/LuSTScenario/lust.poly.xml"/>
    </input>

    <output>
        <summary-output value="/home/joseph/Projects/F2MD/omnetpp-workspace/veins-f2md/networks/LuSTScenario/due.actuated.summary.xml"/>
        <tripinfo-output value="/home/joseph/Projects/F2MD/omnetpp-workspace/veins-f2md/networks/LuSTScenario/due.actuated.tripinfo.xml"/>
    </output>

    <time>
        <begin value="0"/>
        <end value="86400"/>
        <step-length value="0.1"/>
    </time>

    <processing>
        <ignore-junction-blocker value="20"/>
        <scale value="1"/>
        <time-to-teleport value="600"/>
        <max-depart-delay value="600"/>
    </processing>

    <routing>
        <routing-algorithm value="dijkstra"/>
    </routing>

    <report>
        <verbose value="true"/>
        <log value="/home/joseph/Projects/F2MD/omnetpp-workspace/veins-f2md/networks/LuSTScenario/due.actuated.log"/>
    </report>

    <gui_only>
        <gui-settings-file value="/home/joseph/Projects/F2MD/omnetpp-workspace/veins-f2md/networks/LuSTScenario/gui-settings.cfg.xml"/>
        <start value="true"/>
        <tracker-interval value="0.1"/>
    </gui_only>

</configuration>
-->

<tripinfos xmlns:xsi="http://www.w3.org/2001/XMLSchema-instance" xsi:noNamespaceSchemaLocation="http://sumo.dlr.de/xsd/tripinfo_file.xsd">
    <tripinfo id="randUni834:1" depart="5.00" departLane="--32406#3_0" departPos="21.81" departSpeed="0.00" departDelay="0.00" arrival="41.10" arrivalLane="--31212_0" arrivalPos="134.87" arrivalSpeed="1.04" duration="36.10" routeLength="441.47" waitingTime="0.00" waitingCount="0" stopTime="0.00" timeLoss="4.65" rerouteNo="0" devices="tripinfo_randUni834:1" vType="passenger2b" speedFactor="1.01" vaporized=""/>
    <tripinfo id="randUni16882:1" depart="14.00" departLane="-32340#7_0" departPos="77.70" departSpeed="0.00" departDelay="0.00" arrival="122.80" arrivalLane="-32660_0" arrivalPos="136.57" arrivalSpeed="1.11" duration="108.80" routeLength="1311.18" waitingTime="0.00" waitingCount="0" stopTime="0.00" timeLoss="15.36" rerouteNo="0" devices="tripinfo_randUni16882:1" vType="passenger1" speedFactor="1.01" vaporized=""/>
    <tripinfo id="randUni11317:1" depart="11.00" departLane="--31490_0" departPos="39.32" departSpeed="0.00" departDelay="0.00" arrival="176.00" arrivalLane="-31290#1_0" arrivalPos="28.41" arrivalSpeed="1.00" duration="165.00" routeLength="1758.79" waitingTime="19.80" waitingCount="1" stopTime="0.00" timeLoss="57.94" rerouteNo="0" devices="tripinfo_randUni11317:1" vType="passenger2a" speedFactor="1.16" vaporized=""/>
    <tripinfo id="NBSKMS_Nightbus_0" depart="39.00" departLane="-32278#1_0" departPos="0.00" departSpeed="0.00" departDelay="0.00" arrival="225.80" arrivalLane="-32278#5_0" arrivalPos="841.44" arrivalSpeed="14.42" duration="186.80" routeLength="1905.19" waitingTime="39.00" waitingCount="1" stopTime="0.00" timeLoss="55.78" rerouteNo="0" devices="tripinfo_NBSKMS_Nightbus_0" vType="bus" speedFactor="1.05" vaporized=""/>
    <tripinfo id="NBSKMS_Nightbus_1" depart="39.00" departLane="--32278#5_0" departPos="0.00" departSpeed="0.00" departDelay="0.00" arrival="229.00" arrivalLane="--32278#1_0" arrivalPos="139.07" arrivalSpeed="15.52" duration="190.00" routeLength="1910.02" waitingTime="54.40" waitingCount="1" stopTime="0.00" timeLoss="67.49" rerouteNo="0" devices="tripinfo_NBSKMS_Nightbus_1" vType="bus" speedFactor="1.12" vaporized=""/>
    <tripinfo id="0FRtoLU.0" depart="42.00" departLane="-32426#0_0" departPos="5.10" departSpeed="13.89" departDelay="0.00" arrival="282.40" arrivalLane="-32400#5_0" arrivalPos="257.03" arrivalSpeed="37.65" duration="240.40" routeLength="6507.94" waitingTime="0.00" waitingCount="0" stopTime="0.00" timeLoss="10.08" rerouteNo="0" devices="tripinfo_0FRtoLU.0" vType="passenger1" speedFactor="1.04" vaporized=""/>
    <tripinfo id="0FRtoLU.1" depart="63.00" departLane="-32426#0_0" departPos="5.10" departSpeed="13.89" departDelay="0.00" arrival="338.20" arrivalLane="-32400#5_0" arrivalPos="257.03" arrivalSpeed="32.50" duration="275.20" routeLength="6507.94" waitingTime="0.00" waitingCount="0" stopTime="0.00" timeLoss="8.34" rerouteNo="0" devices="tripinfo_0FRtoLU.1" vType="passenger1" speedFactor="0.90" vaporized=""/>
    <tripinfo id="0FRtoLU.2" depart="119.00" departLane="-32426#0_0" departPos="6.10" departSpeed="13.89" departDelay="0.00" arrival="339.30" arrivalLane="-32400#5_0" arrivalPos="257.03" arrivalSpeed="34.26" duration="220.30" routeLength="6506.94" waitingTime="0.00" waitingCount="0" stopTime="0.00" timeLoss="14.72" rerouteNo="0" devices="tripinfo_0FRtoLU.2" vType="passenger3" speedFactor="1.17" vaporized=""/>
    <tripinfo id="randUni13606:1" depart="27.00" departLane="--32244_0" departPos="145.13" departSpeed="0.00" departDelay="0.00" arrival="344.70" arrivalLane="-31068#1_0" arrivalPos="169.76" arrivalSpeed="1.04" duration="317.70" routeLength="2960.22" waitingTime="41.10" waitingCount="3" stopTime="0.00" timeLoss="84.02" rerouteNo="0" devices="tripinfo_randUni13606:1" vType="passenger4" speedFactor="0.89" vaporized=""/>
    <tripinfo id="randUni3742:1" depart="283.00" departLane="--32124#1_0" departPos="44.53" departSpeed="0.00" departDelay="0.00" arrival="359.40" arrivalLane="--31894#2_0" arrivalPos="3.79" arrivalSpeed="0.93" duration="76.40" routeLength="435.19" waitingTime="29.90" waitingCount="1" stopTime="0.00" timeLoss="44.52" rerouteNo="0" devices="tripinfo_randUni3742:1" vType="passenger2a" speedFactor="0.94" vaporized=""/>
    <tripinfo id="0DEtoLU.0" depart="15.00" departLane="-31622#0_0" departPos="4.60" departSpeed="13.89" departDelay="0.00" arrival="361.60" arrivalLane="-32400#5_1" arrivalPos="257.03" arrivalSpeed="37.42" duration="346.60" routeLength="11354.22" waitingTime="0.00" waitingCount="0" stopTime="0.00" timeLoss="6.44" rerouteNo="0" devices="tripinfo_0DEtoLU.0" vType="passenger2a" speedFactor="1.04" vaporized=""/>
    <tripinfo id="0LUtoDE.0" depart="45.00" departLane="-30706#0_0" departPos="5.10" departSpeed="13.89" departDelay="0.00" arrival="374.00" arrivalLane="-30668#16_1" arrivalPos="272.49" arrivalSpeed="36.00" duration="329.00" routeLength="10511.80" waitingTime="0.00" waitingCount="0" stopTime="0.00" timeLoss="6.94" rerouteNo="0" devices="tripinfo_0LUtoDE.0" vType="passenger1" speedFactor="1.00" vaporized=""/>
    <tripinfo id="0DEtoLU.1" depart="43.00" departLane="-31622#0_0" departPos="6.10" departSpeed="13.89" departDelay="0.00" arrival="375.00" arrivalLane="-32400#5_1" arrivalPos="257.03" arrivalSpeed="39.18" duration="332.00" routeLength="11352.72" waitingTime="0.00" waitingCount="0" stopTime="0.00" timeLoss="7.59" rerouteNo="0" devices="tripinfo_0DEtoLU.1" vType="passenger3" speedFactor="1.09" vaporized=""/>
    <tripinfo id="0FRtoLU.3" depart="129.00" departLane="-32426#0_0" departPos="5.10" departSpeed="13.89" departDelay="0.00" arrival="378.20" arrivalLane="-32400#5_0" arrivalPos="257.03" arrivalSpeed="36.10" duration="249.20" routeLength="6507.94" waitingTime="0.00" waitingCount="0" stopTime="0.00" timeLoss="9.67" rerouteNo="0" devices="tripinfo_0FRtoLU.3" vType="passenger1" speedFactor="1.00" vaporized=""/>
    <tripinfo id="0BEtoFR.1" depart="145.00" departLane="-30668#0_0" departPos="4.60" departSpeed="13.89" departDelay="0.00" arrival="395.70" arrivalLane="-31366#3_1" arrivalPos="20.69" arrivalSpeed="41.16" duration="250.70" routeLength="9435.52" waitingTime="0.00" waitingCount="0" stopTime="0.00" timeLoss="7.31" rerouteNo="0" devices="tripinfo_0BEtoFR.1" vType="passenger2a" speedFactor="1.14" vaporized=""/>
    <tripinfo id="0LUtoBE.0" depart="12.00" departLane="-30706#0_0" departPos="4.60" departSpeed="13.89" departDelay="0.00" arrival="408.70" arrivalLane="-31622#16_1" arrivalPos="305.81" arrivalSpeed="34.49" duration="396.70" routeLength="11318.23" waitingTime="0.00" waitingCount="0" stopTime="0.00" timeLoss="10.61" rerouteNo="0" devices="tripinfo_0LUtoBE.0" vType="passenger2a" speedFactor="0.96" vaporized=""/>
    <tripinfo id="0LUtoDE.1" depart="122.00" departLane="-30706#0_0" departPos="4.60" departSpeed="13.89" departDelay="0.00" arrival="422.60" arrivalLane="-30668#16_1" arrivalPos="272.49" arrivalSpeed="39.49" duration="300.60" routeLength="10512.30" waitingTime="0.00" waitingCount="0" stopTime="0.00" timeLoss="7.34" rerouteNo="0" devices="tripinfo_0LUtoDE.1" vType="passenger2b" speedFactor="1.10" vaporized=""/>
    <tripinfo id="0BEtoFR.0" depart="96.00" departLane="-30668#0_0" departPos="7.10" departSpeed="13.89" departDelay="0.00" arrival="433.80" arrivalLane="-31366#3_1" arrivalPos="20.69" arrivalSpeed="29.92" duration="337.80" routeLength="9433.02" waitingTime="0.00" waitingCount="0" stopTime="0.00" timeLoss="5.44" rerouteNo="0" devices="tripinfo_0BEtoFR.0" vType="passenger5" speedFactor="0.88" vaporized=""/>
    <tripinfo id="randUni8397:1" depart="348.00" departLane="--30528#29_0" departPos="22.32" departSpeed="0.00" departDelay="0.00" arrival="440.70" arrivalLane="--30778#0_0" arrivalPos="39.98" arrivalSpeed="1.11" duration="92.70" routeLength="943.72" waitingTime="0.00" waitingCount="0" stopTime="0.00" timeLoss="25.26" rerouteNo="0" devices="tripinfo_randUni8397:1" vType="passenger1" speedFactor="1.01" vaporized=""/>
    <tripinfo id="randUni10908:1" depart="127.00" departLane="-31302_0" departPos="37.98" departSpeed="0.00" departDelay="0.00" arrival="443.30" arrivalLane="--32160#3_0" arrivalPos="48.27" arrivalSpeed="0.86" duration="316.30" routeLength="3122.03" waitingTime="67.50" waitingCount="3" stopTime="0.00" timeLoss="124.20" rerouteNo="0" devices="tripinfo_randUni10908:1" vType="passenger2b" speedFactor="1.17" vaporized=""/>
    <tripinfo id="0FRtoLU.4" depart="192.00" departLane="-32426#0_0" departPos="4.60" departSpeed="13.89" departDelay="0.00" arrival="444.20" arrivalLane="-32400#5_0" arrivalPos="257.03" arrivalSpeed="35.58" duration="252.20" routeLength="6508.44" waitingTime="0.00" waitingCount="0" stopTime="0.00" timeLoss="8.75" rerouteNo="0" devices="tripinfo_0FRtoLU.4" vType="passenger2a" speedFactor="0.99" vaporized=""/>
    <tripinfo id="0DEtoFR.2" depart="14.00" departLane="-31622#0_0" departPos="5.10" departSpeed="13.89" departDelay="0.00" arrival="450.70" arrivalLane="-31366#3_1" arrivalPos="20.69" arrivalSpeed="39.36" duration="436.70" routeLength="15900.65" waitingTime="0.00" waitingCount="0" stopTime="0.00" timeLoss="8.00" rerouteNo="0" devices="tripinfo_0DEtoFR.2" vType="passenger1" speedFactor="1.09" vaporized=""/>
    <tripinfo id="0FRtoBE.0" depart="96.00" departLane="-32426#0_0" departPos="4.60" departSpeed="13.89" departDelay="0.00" arrival="457.00" arrivalLane="-31622#16_1" arrivalPos="305.81" arrivalSpeed="30.65" duration="361.00" routeLength="9592.32" waitingTime="0.00" waitingCount="0" stopTime="0.00" timeLoss="9.42" rerouteNo="0" devices="tripinfo_0FRtoBE.0" vType="passenger2b" speedFactor="0.85" vaporized=""/>
    <tripinfo id="0DEtoFR.1" depart="8.00" departLane="-31622#0_0" departPos="4.60" departSpeed="13.89" departDelay="0.00" arrival="463.10" arrivalLane="-31366#3_1" arrivalPos="20.69" arrivalSpeed="37.68" duration="455.10" routeLength="15901.15" waitingTime="0.00" waitingCount="0" stopTime="0.00" timeLoss="7.44" rerouteNo="0" devices="tripinfo_0DEtoFR.1" vType="passenger2b" speedFactor="1.05" vaporized=""/>
    <tripinfo id="randUni2416:1" depart="301.00" departLane="--32280#0_0" departPos="13.84" departSpeed="0.00" departDelay="0.00" arrival="469.20" arrivalLane="-31904#2_0" arrivalPos="5.58" arrivalSpeed="1.10" duration="168.20" routeLength="2047.11" waitingTime="0.00" waitingCount="0" stopTime="0.00" timeLoss="20.13" rerouteNo="0" devices="tripinfo_randUni2416:1" vType="passenger5" speedFactor="0.98" vaporized=""/>
    <tripinfo id="randUni19500:1" depart="198.00" departLane="-31230#5_0" departPos="103.99" departSpeed="0.00" departDelay="0.00" arrival="474.20" arrivalLane="--30968#1_0" arrivalPos="25.97" arrivalSpeed="1.12" duration="276.20" routeLength="2384.25" waitingTime="73.80" waitingCount="2" stopTime="0.00" timeLoss="120.91" rerouteNo="0" devices="tripinfo_randUni19500:1" vType="passenger2b" speedFactor="1.10" vaporized=""/>
    <tripinfo id="randUni18368:1" depart="0.00" departLane="-31606#0_0" departPos="177.47" departSpeed="0.00" departDelay="0.00" arrival="479.30" arrivalLane="-30496#4_1" arrivalPos="97.49" arrivalSpeed="0.99" duration="479.30" routeLength="3310.62" waitingTime="174.20" waitingCount="6" stopTime="0.00" timeLoss="237.66" rerouteNo="0" devices="tripinfo_randUni18368:1" vType="passenger2a" speedFactor="0.94" vaporized=""/>
    <tripinfo id="0LUtoDE.2" depart="205.00" departLane="-30706#0_0" departPos="4.60" departSpeed="13.89" departDelay="0.00" arrival="492.60" arrivalLane="-30668#16_1" arrivalPos="272.49" arrivalSpeed="41.42" duration="287.60" routeLength="10512.30" waitingTime="0.00" waitingCount="0" stopTime="0.00" timeLoss="7.68" rerouteNo="0" devices="tripinfo_0LUtoDE.2" vType="passenger2b" speedFactor="1.15" vaporized=""/>
    <tripinfo id="0FRtoBE.1" depart="190.00" departLane="-32426#0_0" departPos="4.60" departSpeed="13.89" departDelay="0.00" arrival="496.10" arrivalLane="-31622#16_1" arrivalPos="305.81" arrivalSpeed="36.65" duration="306.10" routeLength="9592.32" waitingTime="0.00" waitingCount="0" stopTime="0.00" timeLoss="11.74" rerouteNo="0" devices="tripinfo_0FRtoBE.1" vType="passenger2b" speedFactor="1.02" vaporized=""/>
    <tripinfo id="0BEtoFR.2" depart="215.00" departLane="-30668#0_0" departPos="4.60" departSpeed="13.89" departDelay="0.00" arrival="506.10" arrivalLane="-31366#3_1" arrivalPos="20.69" arrivalSpeed="35.18" duration="291.10" routeLength="9435.52" waitingTime="0.00" waitingCount="0" stopTime="0.00" timeLoss="6.08" rerouteNo="0" devices="tripinfo_0BEtoFR.2" vType="passenger2b" speedFactor="0.98" vaporized=""/>
    <tripinfo id="randUni20481:1" depart="13.00" departLane="--32468#2_0" departPos="42.76" departSpeed="0.00" departDelay="0.00" arrival="516.30" arrivalLane="-30528#52_1" arrivalPos="5.23" arrivalSpeed="1.02" duration="503.30" routeLength="5791.86" waitingTime="59.00" waitingCount="2" stopTime="0.00" timeLoss="104.10" rerouteNo="0" devices="tripinfo_randUni20481:1" vType="passenger1" speedFactor="1.02" vaporized=""/>
    <tripinfo id="0LUtoBE.1" depart="133.00" departLane="-30706#0_0" departPos="5.10" departSpeed="13.89" departDelay="0.00" arrival="516.60" arrivalLane="-31622#16_1" arrivalPos="305.81" arrivalSpeed="35.84" duration="383.60" routeLength="11317.73" waitingTime="0.00" waitingCount="0" stopTime="0.00" timeLoss="12.53" rerouteNo="0" devices="tripinfo_0LUtoBE.1" vType="passenger1" speedFactor="1.00" vaporized=""/>
    <tripinfo id="0BEtoFR.3" depart="239.00" departLane="-30668#0_0" departPos="4.60" departSpeed="13.89" departDelay="0.00" arrival="519.50" arrivalLane="-31366#3_1" arrivalPos="20.69" arrivalSpeed="36.67" duration="280.50" routeLength="9435.52" waitingTime="0.00" waitingCount="0" stopTime="0.00" timeLoss="6.97" rerouteNo="0" devices="tripinfo_0BEtoFR.3" vType="passenger2a" speedFactor="1.02" vaporized=""/>
    <tripinfo id="0FRtoLU.5" depart="243.00" departLane="-32426#0_0" departPos="5.10" departSpeed="13.89" departDelay="0.00" arrival="520.80" arrivalLane="-32400#5_0" arrivalPos="257.03" arrivalSpeed="32.14" duration="277.80" routeLength="6507.94" waitingTime="0.00" waitingCount="0" stopTime="0.00" timeLoss="8.30" rerouteNo="0" devices="tripinfo_0FRtoLU.5" vType="passenger1" speedFactor="0.89" vaporized=""/>
    <tripinfo id="CNA____NBNA_0" depart="2.00" departLane="-32278#1_2" departPos="0.00" departSpeed="0.00" departDelay="0.00" arrival="529.00" arrivalLane="--32924#0_0" arrivalPos="360.91" arrivalSpeed="14.68" duration="527.00" routeLength="5754.48" waitingTime="102.70" waitingCount="3" stopTime="0.00" timeLoss="145.20" rerouteNo="0" devices="tripinfo_CNA____NBNA_0" vType="bus" speedFactor="1.06" vaporized=""/>
    <tripinfo id="0DEtoLU.2" depart="160.00" departLane="-31622#0_0" departPos="5.10" departSpeed="13.89" departDelay="0.00" arrival="533.20" arrivalLane="-32400#5_1" arrivalPos="257.03" arrivalSpeed="35.00" duration="373.20" routeLength="11353.72" waitingTime="0.00" waitingCount="0" stopTime="0.00" timeLoss="9.16" rerouteNo="0" devices="tripinfo_0DEtoLU.2" vType="passenger1" speedFactor="0.97" vaporized=""/>
    <tripinfo id="0FRtoLU.6" depart="272.00" departLane="-32426#0_0" departPos="4.60" departSpeed="13.89" departDelay="0.00" arrival="545.10" arrivalLane="-32400#5_0" arrivalPos="257.03" arrivalSpeed="32.65" duration="273.10" routeLength="6508.44" waitingTime="0.00" waitingCount="0" stopTime="0.00" timeLoss="8.03" rerouteNo="0" devices="tripinfo_0FRtoLU.6" vType="passenger2b" speedFactor="0.91" vaporized=""/>
    <tripinfo id="randUni9228:1" depart="392.00" departLane="-31648#0_0" departPos="33.27" departSpeed="0.00" departDelay="0.00" arrival="547.00" arrivalLane="-30608#9_1" arrivalPos="5.08" arrivalSpeed="1.07" duration="155.00" routeLength="1634.93" waitingTime="4.90" waitingCount="1" stopTime="0.00" timeLoss="37.85" rerouteNo="0" devices="tripinfo_randUni9228:1" vType="passenger1" speedFactor="1.00" vaporized=""/>
    <tripinfo id="0LUtoFR.0" depart="235.00" departLane="-30706#0_0" departPos="5.10" departSpeed="13.89" departDelay="0.00" arrival="556.60" arrivalLane="-31366#3_1" arrivalPos="20.69" arrivalSpeed="37.55" duration="321.60" routeLength="8111.00" waitingTime="0.00" waitingCount="0" stopTime="0.00" timeLoss="25.80" rerouteNo="0" devices="tripinfo_0LUtoFR.0" vType="passenger1" speedFactor="1.04" vaporized=""/>
    <tripinfo id="0LUtoFR.1" depart="238.00" departLane="-30706#0_0" departPos="4.60" departSpeed="13.89" departDelay="0.00" arrival="558.80" arrivalLane="-31366#3_1" arrivalPos="20.69" arrivalSpeed="36.81" duration="320.80" routeLength="8111.50" waitingTime="0.00" waitingCount="0" stopTime="0.00" timeLoss="19.00" rerouteNo="0" devices="tripinfo_0LUtoFR.1" vType="passenger2a" speedFactor="1.02" vaporized=""/>
    <tripinfo id="0DEtoFR.0" depart="0.00" departLane="-31622#0_0" departPos="5.10" departSpeed="13.89" departDelay="0.00" arrival="569.00" arrivalLane="-31366#3_1" arrivalPos="20.69" arrivalSpeed="29.97" duration="569.00" routeLength="15900.65" waitingTime="0.00" waitingCount="0" stopTime="0.00" timeLoss="5.75" rerouteNo="0" devices="tripinfo_0DEtoFR.0" vType="passenger1" speedFactor="0.83" vaporized=""/>
    <tripinfo id="0FRtoBE.2" depart="267.00" departLane="-32426#0_0" departPos="5.10" departSpeed="13.89" departDelay="0.00" arrival="575.70" arrivalLane="-31622#16_1" arrivalPos="305.81" arrivalSpeed="36.36" duration="308.70" routeLength="9591.82" waitingTime="0.00" waitingCount="0" stopTime="0.00" timeLoss="12.66" rerouteNo="0" devices="tripinfo_0FRtoBE.2" vType="passenger1" speedFactor="1.01" vaporized=""/>
    <tripinfo id="0LUtoFR.2" depart="289.00" departLane="-30706#0_0" departPos="4.60" departSpeed="13.89" departDelay="0.00" arrival="580.00" arrivalLane="-31366#3_1" arrivalPos="20.69" arrivalSpeed="40.39" duration="291.00" routeLength="8111.50" waitingTime="0.00" waitingCount="0" stopTime="0.00" timeLoss="15.97" rerouteNo="0" devices="tripinfo_0LUtoFR.2" vType="passenger2a" speedFactor="1.12" vaporized=""/>
    <tripinfo id="0BEtoLU.0" depart="237.00" departLane="-30668#0_0" departPos="5.10" departSpeed="13.89" departDelay="0.00" arrival="583.10" arrivalLane="-32400#5_0" arrivalPos="257.03" arrivalSpeed="36.28" duration="346.10" routeLength="10745.68" waitingTime="0.00" waitingCount="0" stopTime="0.00" timeLoss="7.05" rerouteNo="0" devices="tripinfo_0BEtoLU.0" vType="passenger1" speedFactor="1.01" vaporized=""/>
    <tripinfo id="0BEtoFR.4" depart="302.00" departLane="-30668#0_0" departPos="5.10" departSpeed="13.89" departDelay="0.00" arrival="599.20" arrivalLane="-31366#3_1" arrivalPos="20.69" arrivalSpeed="34.44" duration="297.20" routeLength="9435.02" waitingTime="0.00" waitingCount="0" stopTime="0.00" timeLoss="6.50" rerouteNo="0" devices="tripinfo_0BEtoFR.4" vType="passenger1" speedFactor="0.96" vaporized=""/>
    <tripinfo id="randUni5174:1" depart="289.00" departLane="--32388_0" departPos="26.25" departSpeed="0.00" departDelay="0.00" arrival="600.20" arrivalLane="-30398#8_0" arrivalPos="16.15" arrivalSpeed="1.01" duration="311.20" routeLength="2405.42" waitingTime="102.30" waitingCount="4" stopTime="0.00" timeLoss="157.05" rerouteNo="0" devices="tripinfo_randUni5174:1" vType="passenger2a" speedFactor="1.06" vaporized=""/>
    <tripinfo id="0DEtoLU.3" depart="265.00" departLane="-31622#0_0" departPos="5.10" departSpeed="13.89" departDelay="0.00" arrival="606.20" arrivalLane="-32400#5_1" arrivalPos="257.03" arrivalSpeed="38.15" duration="341.20" routeLength="11353.72" waitingTime="0.00" waitingCount="0" stopTime="0.00" timeLoss="7.17" rerouteNo="0" devices="tripinfo_0DEtoLU.3" vType="passenger1" speedFactor="1.06" vaporized=""/>
    <tripinfo id="0BEtoLU.2" depart="292.00" departLane="-30668#0_0" departPos="6.10" departSpeed="13.89" departDelay="0.00" arrival="612.30" arrivalLane="-32400#5_0" arrivalPos="257.03" arrivalSpeed="39.49" duration="320.30" routeLength="10744.68" waitingTime="0.00" waitingCount="0" stopTime="0.00" timeLoss="9.12" rerouteNo="0" devices="tripinfo_0BEtoLU.2" vType="passenger3" speedFactor="1.10" vaporized=""/>
    <tripinfo id="randUni18438:1" depart="110.00" departLane="-31146#0_0" departPos="208.50" departSpeed="0.00" departDelay="0.00" arrival="620.50" arrivalLane="-31892#0_0" arrivalPos="25.17" arrivalSpeed="0.97" duration="510.50" routeLength="6391.64" waitingTime="74.80" waitingCount="4" stopTime="0.00" timeLoss="149.69" rerouteNo="0" devices="tripinfo_randUni18438:1" vType="passenger1" speedFactor="1.15" vaporized=""/>
    <tripinfo id="0DEtoFR.4" depart="154.00" departLane="-31622#0_0" departPos="4.60" departSpeed="13.89" departDelay="0.00" arrival="620.80" arrivalLane="-31366#3_1" arrivalPos="20.69" arrivalSpeed="36.85" duration="466.80" routeLength="15901.15" waitingTime="0.00" waitingCount="0" stopTime="0.00" timeLoss="9.43" rerouteNo="0" devices="tripinfo_0DEtoFR.4" vType="passenger2a" speedFactor="1.02" vaporized=""/>
    <tripinfo id="0LUtoDE.3" depart="303.00" departLane="-30706#0_0" departPos="4.60" departSpeed="13.89" departDelay="0.00" arrival="641.10" arrivalLane="-30668#16_1" arrivalPos="272.49" arrivalSpeed="34.84" duration="338.10" routeLength="10512.30" waitingTime="0.00" waitingCount="0" stopTime="0.00" timeLoss="6.25" rerouteNo="0" devices="tripinfo_0LUtoDE.3" vType="passenger2b" speedFactor="0.97" vaporized=""/>
    <tripinfo id="0FRtoBE.3" depart="344.00" departLane="-32426#0_0" departPos="4.60" departSpeed="13.89" departDelay="0.00" arrival="650.40" arrivalLane="-31622#16_1" arrivalPos="305.81" arrivalSpeed="36.47" duration="306.40" routeLength="9592.32" waitingTime="0.00" waitingCount="0" stopTime="0.00" timeLoss="11.54" rerouteNo="0" devices="tripinfo_0FRtoBE.3" vType="passenger2a" speedFactor="1.01" vaporized=""/>
    <tripinfo id="0DEtoFR.3" depart="98.00" departLane="-31622#0_0" departPos="5.10" departSpeed="13.89" departDelay="0.00" arrival="651.50" arrivalLane="-31366#3_1" arrivalPos="20.69" arrivalSpeed="30.83" duration="553.50" routeLength="15900.65" waitingTime="0.00" waitingCount="0" stopTime="0.00" timeLoss="5.97" rerouteNo="0" devices="tripinfo_0DEtoFR.3" vType="passenger1" speedFactor="0.85" vaporized=""/>
    <tripinfo id="0LUtoFR.3" depart="315.00" departLane="-30706#0_0" departPos="5.10" departSpeed="13.89" departDelay="0.00" arrival="653.30" arrivalLane="-31366#3_1" arrivalPos="20.69" arrivalSpeed="34.35" duration="338.30" routeLength="8111.00" waitingTime="0.00" waitingCount="0" stopTime="0.00" timeLoss="14.46" rerouteNo="0" devices="tripinfo_0LUtoFR.3" vType="passenger1" speedFactor="0.95" vaporized=""/>
    <tripinfo id="0FRtoBE.4" depart="359.00" departLane="-32426#0_0" departPos="5.10" departSpeed="13.89" departDelay="0.00" arrival="653.50" arrivalLane="-31622#16_1" arrivalPos="305.81" arrivalSpeed="38.40" duration="294.50" routeLength="9591.82" waitingTime="0.00" waitingCount="0" stopTime="0.00" timeLoss="13.67" rerouteNo="0" devices="tripinfo_0FRtoBE.4" vType="passenger1" speedFactor="1.06" vaporized=""/>
    <tripinfo id="0DEtoBE.2" depart="183.00" departLane="-31622#0_0" departPos="4.60" departSpeed="13.89" departDelay="0.00" arrival="661.80" arrivalLane="-31622#16_2" arrivalPos="305.81" arrivalSpeed="40.41" duration="478.80" routeLength="19107.88" waitingTime="0.00" waitingCount="0" stopTime="0.00" timeLoss="6.01" rerouteNo="0" devices="tripinfo_0DEtoBE.2" vType="passenger2a" speedFactor="1.12" vaporized=""/>
    <tripinfo id="0BEtoLU.1" depart="248.00" departLane="-30668#0_0" departPos="5.10" departSpeed="13.89" departDelay="0.00" arrival="663.10" arrivalLane="-32400#5_0" arrivalPos="257.03" arrivalSpeed="30.08" duration="415.10" routeLength="10745.68" waitingTime="0.00" waitingCount="0" stopTime="0.00" timeLoss="5.44" rerouteNo="0" devices="tripinfo_0BEtoLU.1" vType="passenger1" speedFactor="0.83" vaporized=""/>
    <tripinfo id="0FRtoLU.7" depart="379.00" departLane="-32426#0_0" departPos="7.10" departSpeed="13.89" departDelay="0.00" arrival="664.30" arrivalLane="-32400#5_0" arrivalPos="257.03" arrivalSpeed="29.92" duration="285.30" routeLength="6505.94" waitingTime="0.00" waitingCount="0" stopTime="0.00" timeLoss="34.40" rerouteNo="0" devices="tripinfo_0FRtoLU.7" vType="passenger5" speedFactor="1.10" vaporized=""/>
    <tripinfo id="0DEtoBE.1" depart="180.00" departLane="-31622#0_0" departPos="5.10" departSpeed="13.89" departDelay="0.00" arrival="674.10" arrivalLane="-31622#16_2" arrivalPos="305.81" arrivalSpeed="39.04" duration="494.10" routeLength="19107.38" waitingTime="0.00" waitingCount="0" stopTime="0.00" timeLoss="5.19" rerouteNo="0" devices="tripinfo_0DEtoBE.1" vType="passenger1" speedFactor="1.08" vaporized=""/>
    <tripinfo id="0DEtoLU.4" depart="340.00" departLane="-31622#0_0" departPos="6.10" departSpeed="13.89" departDelay="0.00" arrival="676.20" arrivalLane="-32400#5_1" arrivalPos="257.03" arrivalSpeed="38.63" duration="336.20" routeLength="11352.72" waitingTime="0.00" waitingCount="0" stopTime="0.00" timeLoss="7.19" rerouteNo="0" devices="tripinfo_0DEtoLU.4" vType="passenger3" speedFactor="1.07" vaporized=""/>
    <tripinfo id="0FRtoLU.8" depart="405.00" departLane="-32426#0_0" departPos="5.60" departSpeed="13.89" departDelay="0.00" arrival="685.50" arrivalLane="-32400#5_0" arrivalPos="257.03" arrivalSpeed="29.90" duration="280.50" routeLength="6507.44" waitingTime="0.00" waitingCount="0" stopTime="0.00" timeLoss="6.85" rerouteNo="0" devices="tripinfo_0FRtoLU.8" vType="passenger4" speedFactor="0.92" vaporized=""/>
    <tripinfo id="CNA____NBNA_1" depart="2.00" departLane="-32924#0_0" departPos="0.00" departSpeed="0.00" departDelay="0.00" arrival="687.10" arrivalLane="--32278#1_0" arrivalPos="139.07" arrivalSpeed="12.18" duration="685.10" routeLength="5718.71" waitingTime="175.60" waitingCount="6" stopTime="0.00" timeLoss="231.21" rerouteNo="0" devices="tripinfo_CNA____NBNA_1" vType="bus" speedFactor="0.89" vaporized=""/>
    <tripinfo id="0BEtoFR.5" depart="441.00" departLane="-30668#0_0" departPos="6.10" departSpeed="13.89" departDelay="0.00" arrival="688.10" arrivalLane="-31366#3_1" arrivalPos="20.69" arrivalSpeed="41.93" duration="247.10" routeLength="9434.02" waitingTime="0.00" waitingCount="0" stopTime="0.00" timeLoss="8.26" rerouteNo="0" devices="tripinfo_0BEtoFR.5" vType="passenger3" speedFactor="1.16" vaporized=""/>
    <tripinfo id="randUni1024:1" depart="139.00" departLane="-32924#6_0" departPos="63.42" departSpeed="0.00" departDelay="0.00" arrival="688.60" arrivalLane="-32392#1_0" arrivalPos="14.80" arrivalSpeed="0.81" duration="549.60" routeLength="3759.88" waitingTime="218.50" waitingCount="5" stopTime="0.00" timeLoss="277.86" rerouteNo="0" devices="tripinfo_randUni1024:1" vType="passenger2b" speedFactor="0.99" vaporized=""/>
    <tripinfo id="0LUtoDE.4" depart="324.00" departLane="-30706#0_0" departPos="5.10" departSpeed="13.89" departDelay="0.00" arrival="689.30" arrivalLane="-30668#16_1" arrivalPos="272.49" arrivalSpeed="32.18" duration="365.30" routeLength="10511.80" waitingTime="0.00" waitingCount="0" stopTime="0.00" timeLoss="5.88" rerouteNo="0" devices="tripinfo_0LUtoDE.4" vType="passenger1" speedFactor="0.89" vaporized=""/>
    <tripinfo id="0FRtoLU.9" depart="470.00" departLane="-32426#0_0" departPos="5.10" departSpeed="13.89" departDelay="0.00" arrival="692.10" arrivalLane="-32400#5_0" arrivalPos="257.03" arrivalSpeed="41.09" duration="222.10" routeLength="6507.94" waitingTime="0.00" waitingCount="0" stopTime="0.00" timeLoss="11.53" rerouteNo="0" devices="tripinfo_0FRtoLU.9" vType="passenger1" speedFactor="1.14" vaporized=""/>