<?xml version="1.0" encoding="UTF-8"?>

<!-- generated on jeu. 31 janv. 2019 13:29:47 CET by Eclipse SUMO GUI Version 1.0.1
<configuration xmlns:xsi="http://www.w3.org/2001/XMLSchema-instance" xsi:noNamespaceSchemaLocation="http://sumo.dlr.de/xsd/sumoConfiguration.xsd">

    <input>
        <net-file value="/home/joseph/F2MD/SumoTest/Extract%20Lust/LustFiltered/lust-filt.net.xml"/>
        <route-files value="/home/joseph/F2MD/SumoTest/Extract%20Lust/LustFiltered/buslines-filt.rou.xml,/home/joseph/F2MD/SumoTest/Extract%20Lust/LustFiltered/due-filt.local.actuated.0.rou.xml,/home/joseph/F2MD/SumoTest/Extract%20Lust/LustFiltered/due-filt.local.actuated.1.rou.xml,/home/joseph/F2MD/SumoTest/Extract%20Lust/LustFiltered/due-filt.local.actuated.2.rou.xml"/>
        <additional-files value="/home/joseph/F2MD/SumoTest/Extract%20Lust/LustFiltered/vtypes.add.xml,/home/joseph/F2MD/SumoTest/Extract%20Lust/LustFiltered/lust-filt.add.xml,/home/joseph/F2MD/SumoTest/Extract%20Lust/LustFiltered/lust-filt.poly.xml"/>
    </input>

    <output>
        <summary-output value="/home/joseph/F2MD/SumoTest/Extract%20Lust/LustFiltered/due-filt.actuated.summary.xml"/>
        <tripinfo-output value="/home/joseph/F2MD/SumoTest/Extract%20Lust/LustFiltered/due-filt.actuated.tripinfo.xml"/>
    </output>

    <time>
        <begin value="0"/>
        <end value="86400"/>
        <step-length value="0.1"/>
    </time>

    <processing>
        <ignore-junction-blocker value="20"/>
        <scale value="1"/>
        <time-to-teleport value="600"/>
        <max-depart-delay value="600"/>
    </processing>

    <routing>
        <routing-algorithm value="dijkstra"/>
    </routing>

    <report>
        <verbose value="true"/>
        <log value="/home/joseph/F2MD/SumoTest/Extract%20Lust/LustFiltered/due.actuated.log"/>
    </report>

    <gui_only>
        <gui-settings-file value="/home/joseph/F2MD/SumoTest/Extract%20Lust/LustFiltered/gui-settings.cfg.xml"/>
        <start value="true"/>
        <tracker-interval value="0.1"/>
    </gui_only>

</configuration>
-->

<tripinfos xmlns:xsi="http://www.w3.org/2001/XMLSchema-instance" xsi:noNamespaceSchemaLocation="http://sumo.dlr.de/xsd/tripinfo_file.xsd">
    <tripinfo id="randUni834:1" depart="5.00" departLane="--32406#3_0" departPos="26.42" departSpeed="0.00" departDelay="0.00" arrival="45.00" arrivalLane="--31212_0" arrivalPos="164.32" arrivalSpeed="1.01" duration="40.00" routeLength="465.35" waitingTime="0.00" waitingCount="0" stopTime="0.00" timeLoss="4.30" rerouteNo="0" devices="tripinfo_randUni834:1" vType="passenger2b" speedFactor="0.94" vaporized=""/>
    <tripinfo id="AVL---_CN_1_0" depart="21.00" departLane="--31272#8_0" departPos="0.00" departSpeed="0.00" departDelay="0.00" arrival="143.10" arrivalLane="-31320#2_1" arrivalPos="255.60" arrivalSpeed="17.65" duration="122.10" routeLength="989.68" waitingTime="46.00" waitingCount="1" stopTime="0.00" timeLoss="58.23" rerouteNo="0" devices="tripinfo_AVL---_CN_1_0" vType="bus" speedFactor="1.06" vaporized=""/>
    <tripinfo id="randUni5299:1" depart="37.00" departLane="--32326#1_0" departPos="65.96" departSpeed="0.00" departDelay="0.00" arrival="246.80" arrivalLane="-31920_0" arrivalPos="32.52" arrivalSpeed="1.13" duration="209.80" routeLength="2033.10" waitingTime="2.10" waitingCount="1" stopTime="0.00" timeLoss="33.68" rerouteNo="0" devices="tripinfo_randUni5299:1" vType="passenger1" speedFactor="0.83" vaporized=""/>
    <tripinfo id="randUni1024:1" depart="160.20" departLane="-32924#7_0" departPos="28.17" departSpeed="0.00" departDelay="-0.01" arrival="364.00" arrivalLane="-30892#20_1" arrivalPos="0.98" arrivalSpeed="1.07" duration="203.80" routeLength="1250.58" waitingTime="78.20" waitingCount="2" stopTime="0.00" timeLoss="102.19" rerouteNo="0" devices="tripinfo_randUni1024:1" vType="passenger2b" speedFactor="0.89" vaporized=""/>
    <tripinfo id="randUni14395:1" depart="141.90" departLane="--31986_0" departPos="47.42" departSpeed="0.00" departDelay="-0.01" arrival="366.00" arrivalLane="-31844#3_0" arrivalPos="160.88" arrivalSpeed="1.03" duration="224.10" routeLength="2317.02" waitingTime="31.40" waitingCount="2" stopTime="0.00" timeLoss="64.60" rerouteNo="0" devices="tripinfo_randUni14395:1" vType="passenger1" speedFactor="1.05" vaporized=""/>
    <tripinfo id="randUni10908:1" depart="229.30" departLane="-30802#3_0" departPos="6.67" departSpeed="0.00" departDelay="-0.02" arrival="374.70" arrivalLane="--32160#3_0" arrivalPos="34.01" arrivalSpeed="0.81" duration="145.40" routeLength="1642.01" waitingTime="0.00" waitingCount="0" stopTime="0.00" timeLoss="19.04" rerouteNo="0" devices="tripinfo_randUni10908:1" vType="passenger2b" speedFactor="0.94" vaporized=""/>
    <tripinfo id="randUni15131:1" depart="435.00" departLane="--30892#19_0" departPos="33.65" departSpeed="0.00" departDelay="-0.03" arrival="485.20" arrivalLane="-31272#5_0" arrivalPos="53.37" arrivalSpeed="1.11" duration="50.20" routeLength="520.05" waitingTime="0.00" waitingCount="0" stopTime="0.00" timeLoss="15.75" rerouteNo="0" devices="tripinfo_randUni15131:1" vType="passenger2a" speedFactor="0.99" vaporized=""/>
    <tripinfo id="AVL---_CN_3_0" depart="299.60" departLane="--30892#20_1" departPos="0.00" departSpeed="0.00" departDelay="-0.08" arrival="537.00" arrivalLane="-32750#10_0" arrivalPos="68.42" arrivalSpeed="14.19" duration="237.40" routeLength="1486.16" waitingTime="96.30" waitingCount="4" stopTime="0.00" timeLoss="133.51" rerouteNo="0" devices="tripinfo_AVL---_CN_3_0" vType="bus" speedFactor="1.03" vaporized=""/>
    <tripinfo id="randUni4743:1" depart="315.00" departLane="-31496#13_0" departPos="2.06" departSpeed="0.00" departDelay="0.00" arrival="582.70" arrivalLane="-32750#10_1" arrivalPos="3.03" arrivalSpeed="0.97" duration="267.70" routeLength="1242.30" waitingTime="133.20" waitingCount="5" stopTime="0.00" timeLoss="182.29" rerouteNo="0" devices="tripinfo_randUni4743:1" vType="passenger5" speedFactor="1.05" vaporized=""/>
    <tripinfo id="randUni1749:1" depart="267.40" departLane="--31668#1_0" departPos="2.15" departSpeed="0.00" departDelay="-0.07" arrival="583.50" arrivalLane="-32750#10_0" arrivalPos="13.39" arrivalSpeed="0.77" duration="316.10" routeLength="2186.39" waitingTime="108.10" waitingCount="3" stopTime="0.00" timeLoss="162.73" rerouteNo="0" devices="tripinfo_randUni1749:1" vType="passenger1" speedFactor="1.03" vaporized=""/>
    <tripinfo id="AVL---_CN_3_1" depart="373.10" departLane="--32750#10_2" departPos="0.00" departSpeed="0.00" departDelay="-0.05" arrival="592.80" arrivalLane="-30892#20_0" arrivalPos="21.51" arrivalSpeed="11.87" duration="219.70" routeLength="1498.03" waitingTime="71.00" waitingCount="2" stopTime="0.00" timeLoss="93.84" rerouteNo="0" devices="tripinfo_AVL---_CN_3_1" vType="bus" speedFactor="0.86" vaporized=""/>
    <tripinfo id="randUni1262:1" depart="587.00" departLane="-31878#4_0" departPos="58.62" departSpeed="0.00" departDelay="0.00" arrival="649.20" arrivalLane="-31940#5_2" arrivalPos="167.71" arrivalSpeed="0.84" duration="62.20" routeLength="748.03" waitingTime="0.00" waitingCount="0" stopTime="0.00" timeLoss="9.31" rerouteNo="0" devices="tripinfo_randUni1262:1" vType="passenger4" speedFactor="1.02" vaporized=""/>
    <tripinfo id="randUni4383:1" depart="479.00" departLane="--30872#10_0" departPos="69.87" departSpeed="0.00" departDelay="0.00" arrival="719.70" arrivalLane="-30892#19_0" arrivalPos="60.71" arrivalSpeed="1.14" duration="240.70" routeLength="1287.77" waitingTime="91.90" waitingCount="5" stopTime="0.00" timeLoss="137.24" rerouteNo="0" devices="tripinfo_randUni4383:1" vType="passenger2b" speedFactor="0.88" vaporized=""/>
    <tripinfo id="randUni7788:1" depart="416.20" departLane="-32924#7_0" departPos="37.01" departSpeed="0.00" departDelay="-0.05" arrival="745.20" arrivalLane="-30802#2_1" arrivalPos="27.45" arrivalSpeed="0.93" duration="329.00" routeLength="2636.17" waitingTime="97.00" waitingCount="2" stopTime="0.00" timeLoss="159.69" rerouteNo="0" devices="tripinfo_randUni7788:1" vType="passenger5" speedFactor="1.12" vaporized=""/>
    <tripinfo id="randUni5985:1" depart="580.00" departLane="-31610#4_0" departPos="93.60" departSpeed="0.00" departDelay="0.00" arrival="747.60" arrivalLane="-30944_0" arrivalPos="21.31" arrivalSpeed="0.71" duration="167.60" routeLength="1857.39" waitingTime="0.00" waitingCount="0" stopTime="0.00" timeLoss="32.98" rerouteNo="0" devices="tripinfo_randUni5985:1" vType="passenger2a" speedFactor="0.94" vaporized=""/>
    <tripinfo id="randUni11885:1" depart="685.50" departLane="-32776#4_0" departPos="51.38" departSpeed="0.00" departDelay="-0.01" arrival="752.80" arrivalLane="-31992#3_1" arrivalPos="44.37" arrivalSpeed="0.90" duration="67.30" routeLength="716.39" waitingTime="0.00" waitingCount="0" stopTime="0.00" timeLoss="12.95" rerouteNo="0" devices="tripinfo_randUni11885:1" vType="passenger1" speedFactor="0.95" vaporized=""/>
    <tripinfo id="randUni6078:1" depart="599.10" departLane="-31272#6_0" departPos="123.59" departSpeed="0.00" departDelay="-0.08" arrival="767.50" arrivalLane="-32858#1-AddedOnRampEdge_1" arrivalPos="66.16" arrivalSpeed="0.74" duration="168.40" routeLength="1566.52" waitingTime="56.90" waitingCount="1" stopTime="0.00" timeLoss="72.26" rerouteNo="0" devices="tripinfo_randUni6078:1" vType="passenger2a" speedFactor="0.89" vaporized=""/>
    <tripinfo id="randUni20223:1" depart="529.10" departLane="-32776#4_0" departPos="67.70" departSpeed="0.00" departDelay="-0.04" arrival="775.10" arrivalLane="-32750#10_0" arrivalPos="11.20" arrivalSpeed="1.04" duration="246.00" routeLength="1796.29" waitingTime="71.70" waitingCount="3" stopTime="0.00" timeLoss="108.63" rerouteNo="0" devices="tripinfo_randUni20223:1" vType="passenger2b" speedFactor="0.94" vaporized=""/>
    <tripinfo id="randUni18817:1" depart="608.90" departLane="--31668#1_0" departPos="6.47" departSpeed="0.00" departDelay="-0.04" arrival="778.40" arrivalLane="-31204#3_0" arrivalPos="270.54" arrivalSpeed="0.98" duration="169.50" routeLength="1792.36" waitingTime="0.00" waitingCount="0" stopTime="0.00" timeLoss="13.22" rerouteNo="0" devices="tripinfo_randUni18817:1" vType="passenger2a" speedFactor="0.83" vaporized=""/>
    <tripinfo id="randUni4303:1" depart="592.00" departLane="--30892#4_0" departPos="10.52" departSpeed="0.00" departDelay="0.00" arrival="781.50" arrivalLane="--31496#9_0" arrivalPos="95.03" arrivalSpeed="0.74" duration="189.50" routeLength="1988.53" waitingTime="8.00" waitingCount="1" stopTime="0.00" timeLoss="42.67" rerouteNo="0" devices="tripinfo_randUni4303:1" vType="passenger2b" speedFactor="0.98" vaporized=""/>
    <tripinfo id="randUni226:1" depart="718.50" departLane="-30384#0_0" departPos="50.31" departSpeed="0.00" departDelay="-0.04" arrival="803.20" arrivalLane="--31970_0" arrivalPos="72.33" arrivalSpeed="1.03" duration="84.70" routeLength="1095.23" waitingTime="0.00" waitingCount="0" stopTime="0.00" timeLoss="15.84" rerouteNo="0" devices="tripinfo_randUni226:1" vType="passenger1" speedFactor="1.13" vaporized=""/>
    <tripinfo id="randUni7144:1" depart="588.70" departLane="--30892#19_0" departPos="12.05" departSpeed="0.00" departDelay="-0.03" arrival="833.90" arrivalLane="-30384#2_0" arrivalPos="93.10" arrivalSpeed="0.89" duration="245.20" routeLength="1566.86" waitingTime="96.60" waitingCount="4" stopTime="0.00" timeLoss="134.79" rerouteNo="0" devices="tripinfo_randUni7144:1" vType="passenger1" speedFactor="1.01" vaporized=""/>
    <tripinfo id="randUni3220:1" depart="734.30" departLane="--30892#20_0" departPos="3.98" departSpeed="0.00" departDelay="0.00" arrival="843.30" arrivalLane="--31272#5_0" arrivalPos="36.88" arrivalSpeed="0.95" duration="109.00" routeLength="561.83" waitingTime="53.80" waitingCount="1" stopTime="0.00" timeLoss="65.57" rerouteNo="0" devices="tripinfo_randUni3220:1" vType="passenger2b" speedFactor="0.93" vaporized=""/>
    <tripinfo id="randUni18335:1" depart="477.50" departLane="-30962#0_0" departPos="17.67" departSpeed="0.00" departDelay="-0.01" arrival="874.60" arrivalLane="-31940#5_0" arrivalPos="53.32" arrivalSpeed="0.91" duration="397.10" routeLength="1921.42" waitingTime="193.90" waitingCount="6" stopTime="0.00" timeLoss="247.85" rerouteNo="0" devices="tripinfo_randUni18335:1" vType="passenger3" speedFactor="0.93" vaporized=""/>
    <tripinfo id="randUni10497:1" depart="583.90" departLane="-31834#2_0" departPos="53.44" departSpeed="0.00" departDelay="-0.05" arrival="875.40" arrivalLane="-31844#3_0" arrivalPos="252.13" arrivalSpeed="1.04" duration="291.50" routeLength="1775.24" waitingTime="144.50" waitingCount="3" stopTime="0.00" timeLoss="181.59" rerouteNo="0" devices="tripinfo_randUni10497:1" vType="passenger1" speedFactor="1.16" vaporized=""/>
    <tripinfo id="randUni359:1" depart="754.60" departLane="-32924#7_0" departPos="36.08" departSpeed="0.00" departDelay="-0.09" arrival="888.40" arrivalLane="--30770#1_0" arrivalPos="21.55" arrivalSpeed="1.11" duration="133.80" routeLength="788.72" waitingTime="61.20" waitingCount="2" stopTime="0.00" timeLoss="84.62" rerouteNo="0" devices="tripinfo_randUni359:1" vType="passenger1" speedFactor="1.15" vaporized=""/>
    <tripinfo id="randUni690:1" depart="922.80" departLane="--30892#20_0" departPos="6.42" departSpeed="0.00" departDelay="0.31" arrival="960.20" arrivalLane="-31320#2_0" arrivalPos="159.33" arrivalSpeed="1.15" duration="37.40" routeLength="397.02" waitingTime="0.00" waitingCount="0" stopTime="0.00" timeLoss="11.91" rerouteNo="0" devices="tripinfo_randUni690:1" vType="passenger2a" speedFactor="1.04" vaporized=""/>
    <tripinfo id="randUni1008:1" depart="764.00" departLane="-31858#0_0" departPos="26.50" departSpeed="0.00" departDelay="0.00" arrival="966.50" arrivalLane="-30892#20_0" arrivalPos="5.74" arrivalSpeed="0.85" duration="202.50" routeLength="2204.64" waitingTime="31.50" waitingCount="1" stopTime="0.00" timeLoss="53.72" rerouteNo="0" devices="tripinfo_randUni1008:1" vType="passenger1" speedFactor="1.01" vaporized=""/>
    <tripinfo id="randUni11238:1" depart="903.00" departLane="-31056#3_0" departPos="55.31" departSpeed="0.00" departDelay="0.00" arrival="971.10" arrivalLane="-30944_1" arrivalPos="19.33" arrivalSpeed="1.04" duration="68.10" routeLength="298.70" waitingTime="33.20" waitingCount="1" stopTime="0.00" timeLoss="47.08" rerouteNo="0" devices="tripinfo_randUni11238:1" vType="passenger2a" speedFactor="0.96" vaporized=""/>
    <tripinfo id="randUni15119:1" depart="822.60" departLane="--32664#0_0" departPos="61.02" departSpeed="0.00" departDelay="-0.02" arrival="978.30" arrivalLane="-30892#19_0" arrivalPos="22.92" arrivalSpeed="0.85" duration="155.70" routeLength="1888.55" waitingTime="6.90" waitingCount="1" stopTime="0.00" timeLoss="27.45" rerouteNo="0" devices="tripinfo_randUni15119:1" vType="passenger2a" speedFactor="0.99" vaporized=""/>
    <tripinfo id="randUni17263:1" depart="749.40" departLane="-31834#2_0" departPos="9.53" departSpeed="0.00" departDelay="-0.02" arrival="989.20" arrivalLane="-31668#1_0" arrivalPos="8.32" arrivalSpeed="1.01" duration="239.80" routeLength="2029.98" waitingTime="78.50" waitingCount="3" stopTime="0.00" timeLoss="117.01" rerouteNo="0" devices="tripinfo_randUni17263:1" vType="passenger4" speedFactor="1.18" vaporized=""/>
    <tripinfo id="randUni18216:1" depart="907.00" departLane="-31940#3_0" departPos="301.55" departSpeed="0.00" departDelay="0.00" arrival="992.30" arrivalLane="-31668#1_0" arrivalPos="0.23" arrivalSpeed="0.84" duration="85.30" routeLength="626.00" waitingTime="28.20" waitingCount="1" stopTime="0.00" timeLoss="44.03" rerouteNo="0" devices="tripinfo_randUni18216:1" vType="passenger1" speedFactor="1.09" vaporized=""/>
    <tripinfo id="randUni19588:1" depart="946.60" departLane="-32924#7_0" departPos="24.96" departSpeed="0.00" departDelay="0.00" arrival="993.10" arrivalLane="-32924#11_0" arrivalPos="48.73" arrivalSpeed="0.88" duration="46.50" routeLength="435.63" waitingTime="0.10" waitingCount="1" stopTime="0.00" timeLoss="17.68" rerouteNo="0" devices="tripinfo_randUni19588:1" vType="passenger1" speedFactor="1.09" vaporized=""/>
    <tripinfo id="randUni14249:1" depart="640.40" departLane="-31496#9_0" departPos="166.34" departSpeed="0.00" departDelay="0.00" arrival="995.70" arrivalLane="--31812_0" arrivalPos="176.60" arrivalSpeed="0.90" duration="355.30" routeLength="2735.99" waitingTime="75.00" waitingCount="4" stopTime="0.00" timeLoss="129.79" rerouteNo="0" devices="tripinfo_randUni14249:1" vType="passenger2b" speedFactor="0.87" vaporized=""/>
    <tripinfo id="randUni18347:1" depart="655.00" departLane="--30892#19_0" departPos="37.17" departSpeed="0.00" departDelay="-0.02" arrival="1012.60" arrivalLane="--31952#17_0" arrivalPos="347.74" arrivalSpeed="0.77" duration="357.60" routeLength="2506.02" waitingTime="100.80" waitingCount="5" stopTime="0.00" timeLoss="160.90" rerouteNo="0" devices="tripinfo_randUni18347:1" vType="passenger1" speedFactor="0.92" vaporized=""/>
    <tripinfo id="randUni8394:1" depart="770.00" departLane="--31930#0_0" departPos="24.33" departSpeed="0.00" departDelay="0.00" arrival="1019.90" arrivalLane="-32750#10_2" arrivalPos="60.17" arrivalSpeed="0.96" duration="249.90" routeLength="2253.56" waitingTime="66.40" waitingCount="2" stopTime="0.00" timeLoss="111.45" rerouteNo="0" devices="tripinfo_randUni8394:1" vType="passenger1" speedFactor="1.17" vaporized=""/>
    <tripinfo id="randUni8362:1" depart="836.00" departLane="--30418#3_0" departPos="35.13" departSpeed="0.00" departDelay="0.00" arrival="1032.10" arrivalLane="-31668#1_0" arrivalPos="7.06" arrivalSpeed="0.81" duration="196.10" routeLength="2353.49" waitingTime="0.00" waitingCount="0" stopTime="0.00" timeLoss="29.93" rerouteNo="0" devices="tripinfo_randUni8362:1" vType="passenger2b" speedFactor="1.02" vaporized=""/>
    <tripinfo id="randUni17885:1" depart="882.00" departLane="-32270#3_0" departPos="61.14" departSpeed="0.00" departDelay="0.00" arrival="1041.60" arrivalLane="-30944_0" arrivalPos="20.94" arrivalSpeed="0.71" duration="159.60" routeLength="1851.88" waitingTime="0.00" waitingCount="0" stopTime="0.00" timeLoss="24.22" rerouteNo="0" devices="tripinfo_randUni17885:1" vType="passenger3" speedFactor="0.90" vaporized=""/>
    <tripinfo id="randUni5421:1" depart="860.60" departLane="--32664#0_0" departPos="27.16" departSpeed="0.00" departDelay="-0.09" arrival="1048.70" arrivalLane="-30892#20_0" arrivalPos="8.45" arrivalSpeed="0.78" duration="188.10" routeLength="1983.13" waitingTime="29.30" waitingCount="1" stopTime="0.00" timeLoss="50.43" rerouteNo="0" devices="tripinfo_randUni5421:1" vType="passenger2b" speedFactor="0.97" vaporized=""/>
    <tripinfo id="randUni9586:1" depart="971.00" departLane="-30842#1_0" departPos="10.77" departSpeed="0.00" departDelay="0.00" arrival="1061.60" arrivalLane="-31920_0" arrivalPos="17.91" arrivalSpeed="0.76" duration="90.60" routeLength="425.93" waitingTime="36.90" waitingCount="2" stopTime="0.00" timeLoss="59.86" rerouteNo="0" devices="tripinfo_randUni9586:1" vType="passenger1" speedFactor="1.00" vaporized=""/>
    <tripinfo id="randUni13004:1" depart="872.10" departLane="--31844#3_0" departPos="101.88" departSpeed="0.00" departDelay="-0.04" arrival="1070.50" arrivalLane="-30944_0" arrivalPos="28.56" arrivalSpeed="0.98" duration="198.40" routeLength="2269.90" waitingTime="9.40" waitingCount="2" stopTime="0.00" timeLoss="57.26" rerouteNo="0" devices="tripinfo_randUni13004:1" vType="passenger2a" speedFactor="1.10" vaporized=""/>
    <tripinfo id="randUni7419:1" depart="862.00" departLane="--31744#3_0" departPos="70.94" departSpeed="0.00" departDelay="0.00" arrival="1083.40" arrivalLane="-30892#20_0" arrivalPos="21.74" arrivalSpeed="0.78" duration="221.40" routeLength="1776.84" waitingTime="65.10" waitingCount="3" stopTime="0.00" timeLoss="112.96" rerouteNo="0" devices="tripinfo_randUni7419:1" vType="passenger1" speedFactor="1.18" vaporized=""/>
    <tripinfo id="randUni13869:1" depart="1072.00" departLane="--32776#3_0" departPos="169.96" departSpeed="0.00" departDelay="0.00" arrival="1091.60" arrivalLane="-31668#1_0" arrivalPos="10.93" arrivalSpeed="0.86" duration="19.60" routeLength="175.60" waitingTime="0.00" waitingCount="0" stopTime="0.00" timeLoss="8.07" rerouteNo="0" devices="tripinfo_randUni13869:1" vType="passenger1" speedFactor="1.10" vaporized=""/>
    <tripinfo id="randUni16430:1" depart="900.50" departLane="--32664#0_0" departPos="49.06" departSpeed="0.00" departDelay="-0.01" arrival="1095.00" arrivalLane="-31602#0_0" arrivalPos="99.35" arrivalSpeed="0.79" duration="194.50" routeLength="1851.23" waitingTime="33.30" waitingCount="1" stopTime="0.00" timeLoss="70.32" rerouteNo="0" devices="tripinfo_randUni16430:1" vType="passenger1" speedFactor="1.03" vaporized=""/>
    <tripinfo id="randUni12373:1" depart="997.00" departLane="--31152#0_0" departPos="298.53" departSpeed="0.00" departDelay="0.00" arrival="1130.40" arrivalLane="-30384#5_1" arrivalPos="20.47" arrivalSpeed="0.80" duration="133.40" routeLength="1362.77" waitingTime="0.00" waitingCount="0" stopTime="0.00" timeLoss="27.44" rerouteNo="0" devices="tripinfo_randUni12373:1" vType="passenger2b" speedFactor="0.90" vaporized=""/>
    <tripinfo id="randUni11598:1" depart="1124.60" departLane="-31144#0_0" departPos="59.68" departSpeed="0.00" departDelay="-0.02" arrival="1176.30" arrivalLane="-31470#1_0" arrivalPos="39.44" arrivalSpeed="0.73" duration="51.70" routeLength="509.04" waitingTime="0.00" waitingCount="0" stopTime="0.00" timeLoss="12.34" rerouteNo="0" devices="tripinfo_randUni11598:1" vType="passenger2a" speedFactor="0.90" vaporized=""/>
    <tripinfo id="randUni8158:1" depart="1048.00" departLane="-32406#1_0" departPos="14.37" departSpeed="0.00" departDelay="0.00" arrival="1194.20" arrivalLane="--31834#2_0" arrivalPos="5.33" arrivalSpeed="0.76" duration="146.20" routeLength="1464.25" waitingTime="22.30" waitingCount="1" stopTime="0.00" timeLoss="43.00" rerouteNo="0" devices="tripinfo_randUni8158:1" vType="passenger1" speedFactor="1.02" vaporized=""/>
    <tripinfo id="randUni13490:1" depart="1046.80" departLane="-31272#6_0" departPos="212.21" departSpeed="0.00" departDelay="-0.05" arrival="1290.10" arrivalLane="--31342#2_0" arrivalPos="22.60" arrivalSpeed="1.00" duration="243.30" routeLength="1920.01" waitingTime="42.40" waitingCount="3" stopTime="0.00" timeLoss="81.62" rerouteNo="0" devices="tripinfo_randUni13490:1" vType="passenger4" speedFactor="0.85" vaporized=""/>
    <tripinfo id="AVL---_CN_1_1" depart="1168.40" departLane="-31272#5_0" departPos="0.00" departSpeed="0.00" departDelay="-0.08" arrival="1293.20" arrivalLane="-31272#8_0" arrivalPos="300.37" arrivalSpeed="15.15" duration="124.80" routeLength="928.32" waitingTime="51.10" waitingCount="1" stopTime="0.00" timeLoss="63.51" rerouteNo="0" devices="tripinfo_AVL---_CN_1_1" vType="bus" speedFactor="1.09" vaporized=""/>
    <tripinfo id="randUni2643:1" depart="1119.60" departLane="--31844#3_0" departPos="18.37" departSpeed="0.00" departDelay="-0.08" arrival="1303.60" arrivalLane="-32750#10_2" arrivalPos="12.01" arrivalSpeed="0.91" duration="184.00" routeLength="1737.05" waitingTime="31.50" waitingCount="2" stopTime="0.00" timeLoss="58.45" rerouteNo="0" devices="tripinfo_randUni2643:1" vType="passenger2a" speedFactor="1.00" vaporized=""/>
    <tripinfo id="randUni10432:1" depart="999.40" departLane="-31834#2_0" departPos="54.49" departSpeed="0.00" departDelay="-0.07" arrival="1314.40" arrivalLane="-31668#1_0" arrivalPos="8.91" arrivalSpeed="1.08" duration="315.00" routeLength="2025.73" waitingTime="120.20" waitingCount="2" stopTime="0.00" timeLoss="149.26" rerouteNo="0" devices="tripinfo_randUni10432:1" vType="passenger5" speedFactor="0.88" vaporized=""/>
    <tripinfo id="randUni6055:1" depart="1286.30" departLane="--30892#19_0" departPos="9.72" departSpeed="0.00" departDelay="-0.01" arrival="1330.50" arrivalLane="-31320#2_0" arrivalPos="159.42" arrivalSpeed="0.87" duration="44.20" routeLength="348.23" waitingTime="7.80" waitingCount="1" stopTime="0.00" timeLoss="21.29" rerouteNo="0" devices="tripinfo_randUni6055:1" vType="passenger1" speedFactor="0.99" vaporized=""/>
    <tripinfo id="randUni15016:1" depart="921.10" departLane="--30892#20_0" departPos="12.70" departSpeed="0.00" departDelay="-0.03" arrival="1355.40" arrivalLane="--31496#9_0" arrivalPos="64.23" arrivalSpeed="0.73" duration="434.30" routeLength="2586.01" waitingTime="177.60" waitingCount="6" stopTime="0.00" timeLoss="254.90" rerouteNo="0" devices="tripinfo_randUni15016:1" vType="passenger2b" speedFactor="1.04" vaporized=""/>
    <tripinfo id="randUni20642:1" depart="1274.40" departLane="-31952#17_0" departPos="220.05" departSpeed="0.00" departDelay="-0.03" arrival="1375.70" arrivalLane="--31610#1_1" arrivalPos="0.53" arrivalSpeed="0.96" duration="101.30" routeLength="1252.15" waitingTime="0.00" waitingCount="0" stopTime="0.00" timeLoss="20.77" rerouteNo="0" devices="tripinfo_randUni20642:1" vType="passenger1" speedFactor="1.12" vaporized=""/>
    <tripinfo id="randUni9974:1" depart="1234.00" departLane="--32924#10_0" departPos="48.93" departSpeed="0.00" departDelay="0.00" arrival="1438.80" arrivalLane="-30892#20_0" arrivalPos="17.77" arrivalSpeed="0.89" duration="204.80" routeLength="1615.43" waitingTime="51.90" waitingCount="2" stopTime="0.00" timeLoss="84.85" rerouteNo="0" devices="tripinfo_randUni9974:1" vType="passenger2b" speedFactor="0.97" vaporized=""/>
    <tripinfo id="randUni1444:1" depart="1014.40" departLane="--30892#20_0" departPos="5.59" departSpeed="0.00" departDelay="-0.09" arrival="1439.90" arrivalLane="--30566#1_0" arrivalPos="25.95" arrivalSpeed="0.80" duration="425.50" routeLength="3419.22" waitingTime="96.60" waitingCount="3" stopTime="0.00" timeLoss="140.19" rerouteNo="0" devices="tripinfo_randUni1444:1" vType="passenger2a" speedFactor="0.85" vaporized=""/>
    <tripinfo id="randUni10147:1" depart="1174.30" departLane="--31986_0" departPos="19.32" departSpeed="0.00" departDelay="-0.04" arrival="1443.70" arrivalLane="--30566#1_0" arrivalPos="35.87" arrivalSpeed="0.99" duration="269.40" routeLength="2633.13" waitingTime="33.60" waitingCount="2" stopTime="0.00" timeLoss="103.70" rerouteNo="0" devices="tripinfo_randUni10147:1" vType="passenger2a" speedFactor="1.14" vaporized=""/>
    <tripinfo id="randUni3471:1" depart="1249.00" departLane="-31118#2_0" departPos="34.37" departSpeed="0.00" departDelay="0.00" arrival="1452.90" arrivalLane="-31320#2_1" arrivalPos="12.35" arrivalSpeed="0.90" duration="203.90" routeLength="2089.27" waitingTime="31.30" waitingCount="1" stopTime="0.00" timeLoss="71.78" rerouteNo="0" devices="tripinfo_randUni3471:1" vType="passenger5" speedFactor="1.08" vaporized=""/>
    <tripinfo id="randUni1291:1" depart="1046.90" departLane="-32428#1_0" departPos="17.92" departSpeed="0.00" departDelay="-0.04" arrival="1467.40" arrivalLane="--32458#1_0" arrivalPos="13.30" arrivalSpeed="1.15" duration="420.50" routeLength="3884.72" waitingTime="103.20" waitingCount="3" stopTime="0.00" timeLoss="181.24" rerouteNo="0" devices="tripinfo_randUni1291:1" vType="passenger4" speedFactor="1.17" vaporized=""/>
    <tripinfo id="randUni2738:1" depart="1276.20" departLane="-31272#5_0" departPos="20.08" departSpeed="0.00" departDelay="-0.05" arrival="1481.40" arrivalLane="--31718#3_0" arrivalPos="5.79" arrivalSpeed="0.75" duration="205.20" routeLength="2037.68" waitingTime="12.40" waitingCount="1" stopTime="0.00" timeLoss="60.78" rerouteNo="0" devices="tripinfo_randUni2738:1" vType="passenger5" speedFactor="1.02" vaporized=""/>
    <tripinfo id="randUni16751:1" depart="1176.40" departLane="-30802#1_0" departPos="41.05" departSpeed="0.00" departDelay="-0.01" arrival="1494.00" arrivalLane="-30892#20_0" arrivalPos="14.25" arrivalSpeed="0.78" duration="317.60" routeLength="3332.01" waitingTime="24.80" waitingCount="2" stopTime="0.00" timeLoss="83.24" rerouteNo="0" devices="tripinfo_randUni16751:1" vType="passenger4" speedFactor="1.02" vaporized=""/>
    <tripinfo id="randUni14211:1" depart="1295.30" departLane="-30962#0_0" departPos="6.51" departSpeed="0.00" departDelay="-0.03" arrival="1538.80" arrivalLane="--31342#3_0" arrivalPos="45.21" arrivalSpeed="0.97" duration="243.50" routeLength="2458.24" waitingTime="19.50" waitingCount="2" stopTime="0.00" timeLoss="54.76" rerouteNo="0" devices="tripinfo_randUni14211:1" vType="passenger2a" speedFactor="0.94" vaporized=""/>
    <tripinfo id="randUni7689:1" depart="1457.90" departLane="-32454#1-AddedOffRampEdge_0" departPos="70.79" departSpeed="0.00" departDelay="-0.05" arrival="1543.50" arrivalLane="--32064#0_0" arrivalPos="1.14" arrivalSpeed="0.98" duration="85.60" routeLength="1204.41" waitingTime="0.00" waitingCount="0" stopTime="0.00" timeLoss="15.53" rerouteNo="0" devices="tripinfo_randUni7689:1" vType="passenger2b" speedFactor="1.02" vaporized=""/>
    <tripinfo id="randUni15024:1" depart="1483.00" departLane="-32458#1_0" departPos="10.42" departSpeed="0.00" departDelay="-0.09" arrival="1559.70" arrivalLane="--31834#2_1" arrivalPos="60.09" arrivalSpeed="1.03" duration="76.70" routeLength="910.35" waitingTime="0.00" waitingCount="0" stopTime="0.00" timeLoss="11.04" rerouteNo="0" devices="tripinfo_randUni15024:1" vType="passenger2a" speedFactor="0.97" vaporized=""/>
    <tripinfo id="randUni17833:1" depart="1462.00" departLane="--32976_0" departPos="79.92" departSpeed="0.00" departDelay="0.00" arrival="1640.40" arrivalLane="-30892#20_0" arrivalPos="15.40" arrivalSpeed="0.97" duration="178.40" routeLength="2307.03" waitingTime="0.00" waitingCount="0" stopTime="0.00" timeLoss="22.84" rerouteNo="0" devices="tripinfo_randUni17833:1" vType="passenger2a" speedFactor="1.02" vaporized=""/>