<?xml version="1.0" encoding="UTF-8"?>

<!-- generated on jeu. 31 janv. 2019 15:08:46 CET by Eclipse SUMO GUI Version 1.0.1
<configuration xmlns:xsi="http://www.w3.org/2001/XMLSchema-instance" xsi:noNamespaceSchemaLocation="http://sumo.dlr.de/xsd/sumoConfiguration.xsd">

    <input>
        <net-file value="/home/joseph/Projects/F2MD/omnetpp-workspace/veins-f2md/networks/LuSTNanoScenario/lust.net.xml"/>
        <route-files value="/home/joseph/Projects/F2MD/omnetpp-workspace/veins-f2md/networks/LuSTNanoScenario/buslines.rou.xml,/home/joseph/Projects/F2MD/omnetpp-workspace/veins-f2md/networks/LuSTNanoScenario/due.local.actuated.0.rou.xml,/home/joseph/Projects/F2MD/omnetpp-workspace/veins-f2md/networks/LuSTNanoScenario/due.local.actuated.1.rou.xml,/home/joseph/Projects/F2MD/omnetpp-workspace/veins-f2md/networks/LuSTNanoScenario/due.local.actuated.2.rou.xml"/>
        <additional-files value="/home/joseph/Projects/F2MD/omnetpp-workspace/veins-f2md/networks/LuSTNanoScenario/vtypes.add.xml,/home/joseph/Projects/F2MD/omnetpp-workspace/veins-f2md/networks/LuSTNanoScenario/lust.add.xml,/home/joseph/Projects/F2MD/omnetpp-workspace/veins-f2md/networks/LuSTNanoScenario/lust.poly.xml"/>
    </input>

    <output>
        <summary-output value="/home/joseph/Projects/F2MD/omnetpp-workspace/veins-f2md/networks/LuSTNanoScenario/due.actuated.summary.xml"/>
        <tripinfo-output value="/home/joseph/Projects/F2MD/omnetpp-workspace/veins-f2md/networks/LuSTNanoScenario/due.actuated.tripinfo.xml"/>
    </output>

    <time>
        <begin value="0"/>
        <end value="86400"/>
        <step-length value="0.1"/>
    </time>

    <processing>
        <ignore-junction-blocker value="20"/>
        <scale value="1"/>
        <time-to-teleport value="600"/>
        <max-depart-delay value="600"/>
    </processing>

    <routing>
        <routing-algorithm value="dijkstra"/>
    </routing>

    <report>
        <verbose value="true"/>
        <log value="/home/joseph/Projects/F2MD/omnetpp-workspace/veins-f2md/networks/LuSTNanoScenario/due.actuated.log"/>
    </report>

    <gui_only>
        <gui-settings-file value="/home/joseph/Projects/F2MD/omnetpp-workspace/veins-f2md/networks/LuSTNanoScenario/gui-settings.cfg.xml"/>
        <start value="true"/>
        <tracker-interval value="0.1"/>
    </gui_only>

</configuration>
-->

<tripinfos xmlns:xsi="http://www.w3.org/2001/XMLSchema-instance" xsi:noNamespaceSchemaLocation="http://sumo.dlr.de/xsd/tripinfo_file.xsd">
    <tripinfo id="randUni1024:1" depart="239.50" departLane="-30892#20_0" departPos="15.40" departSpeed="0.00" departDelay="-0.01" arrival="366.70" arrivalLane="-32558_0" arrivalPos="26.40" arrivalSpeed="0.93" duration="127.20" routeLength="884.08" waitingTime="40.10" waitingCount="2" stopTime="0.00" timeLoss="59.37" rerouteNo="0" devices="tripinfo_randUni1024:1" vType="passenger2b" speedFactor="0.94" vaporized=""/>
    <tripinfo id="randUni19500:1" depart="301.90" departLane="-30552_0" departPos="52.73" departSpeed="0.00" departDelay="-0.09" arrival="376.40" arrivalLane="--30968#1_0" arrivalPos="3.85" arrivalSpeed="1.11" duration="74.50" routeLength="828.34" waitingTime="0.00" waitingCount="0" stopTime="0.00" timeLoss="16.62" rerouteNo="0" devices="tripinfo_randUni19500:1" vType="passenger2b" speedFactor="1.03" vaporized=""/>
    <tripinfo id="randUni7144:1" depart="522.00" departLane="-32618#5_0" departPos="12.39" departSpeed="0.00" departDelay="0.00" arrival="571.20" arrivalLane="-31066#8_1" arrivalPos="51.58" arrivalSpeed="0.78" duration="49.20" routeLength="565.83" waitingTime="0.00" waitingCount="0" stopTime="0.00" timeLoss="10.25" rerouteNo="0" devices="tripinfo_randUni7144:1" vType="passenger1" speedFactor="1.05" vaporized=""/>
    <tripinfo id="randUni1785:1" depart="434.60" departLane="-31340#0_0" departPos="105.70" departSpeed="0.00" departDelay="-0.01" arrival="632.50" arrivalLane="-31066#8_1" arrivalPos="154.90" arrivalSpeed="1.02" duration="197.90" routeLength="2091.75" waitingTime="0.00" waitingCount="0" stopTime="0.00" timeLoss="16.70" rerouteNo="0" devices="tripinfo_randUni1785:1" vType="passenger1" speedFactor="0.83" vaporized=""/>
    <tripinfo id="randUni4182:1" depart="632.40" departLane="-31340#0_0" departPos="635.73" departSpeed="0.00" departDelay="0.00" arrival="679.80" arrivalLane="--30740#2_0" arrivalPos="11.58" arrivalSpeed="1.16" duration="47.40" routeLength="445.53" waitingTime="0.00" waitingCount="0" stopTime="0.00" timeLoss="12.86" rerouteNo="0" devices="tripinfo_randUni4182:1" vType="passenger1" speedFactor="0.94" vaporized=""/>
    <tripinfo id="randUni18347:1" depart="577.00" departLane="--30892#25_0" departPos="143.95" departSpeed="0.00" departDelay="0.00" arrival="691.70" arrivalLane="-31066#8_1" arrivalPos="196.82" arrivalSpeed="0.95" duration="114.70" routeLength="731.20" waitingTime="40.60" waitingCount="1" stopTime="0.00" timeLoss="55.29" rerouteNo="0" devices="tripinfo_randUni18347:1" vType="passenger1" speedFactor="0.89" vaporized=""/>
    <tripinfo id="randUni11559:1" depart="753.00" departLane="-30740#0_0" departPos="58.76" departSpeed="0.00" departDelay="0.00" arrival="812.40" arrivalLane="--31340#0_0" arrivalPos="473.59" arrivalSpeed="0.90" duration="59.40" routeLength="758.64" waitingTime="0.00" waitingCount="0" stopTime="0.00" timeLoss="9.33" rerouteNo="0" devices="tripinfo_randUni11559:1" vType="passenger1" speedFactor="1.09" vaporized=""/>
    <tripinfo id="randUni3220:1" depart="661.00" departLane="--30892#26_0" departPos="47.02" departSpeed="0.00" departDelay="-0.08" arrival="834.20" arrivalLane="--30892#20_0" arrivalPos="1.13" arrivalSpeed="0.85" duration="173.20" routeLength="1049.09" waitingTime="66.70" waitingCount="2" stopTime="0.00" timeLoss="85.06" rerouteNo="0" devices="tripinfo_randUni3220:1" vType="passenger2b" speedFactor="0.86" vaporized=""/>
    <tripinfo id="randUni13901:1" depart="775.20" departLane="-31340#0_0" departPos="334.26" departSpeed="0.00" departDelay="-0.09" arrival="860.50" arrivalLane="-30544_0" arrivalPos="3.70" arrivalSpeed="0.99" duration="85.30" routeLength="1065.72" waitingTime="0.00" waitingCount="0" stopTime="0.00" timeLoss="10.54" rerouteNo="0" devices="tripinfo_randUni13901:1" vType="passenger2b" speedFactor="1.03" vaporized=""/>
    <tripinfo id="randUni690:1" depart="880.00" departLane="-30968#2_0" departPos="11.86" departSpeed="0.00" departDelay="0.00" arrival="952.30" arrivalLane="--30892#20_0" arrivalPos="1.39" arrivalSpeed="1.14" duration="72.30" routeLength="646.86" waitingTime="13.90" waitingCount="1" stopTime="0.00" timeLoss="30.83" rerouteNo="0" devices="tripinfo_randUni690:1" vType="passenger2a" speedFactor="1.12" vaporized=""/>
    <tripinfo id="randUni15016:1" depart="835.00" departLane="-31340#1_0" departPos="2.13" departSpeed="0.00" departDelay="0.00" arrival="964.10" arrivalLane="--30892#20_0" arrivalPos="18.15" arrivalSpeed="1.02" duration="129.10" routeLength="1351.87" waitingTime="17.10" waitingCount="1" stopTime="0.00" timeLoss="36.15" rerouteNo="0" devices="tripinfo_randUni15016:1" vType="passenger2b" speedFactor="1.05" vaporized=""/>
    <tripinfo id="randUni12682:1" depart="886.00" departLane="--31066#4_0" departPos="26.42" departSpeed="0.00" departDelay="0.00" arrival="964.80" arrivalLane="--31340#0_0" arrivalPos="334.15" arrivalSpeed="0.86" duration="78.80" routeLength="959.51" waitingTime="0.00" waitingCount="0" stopTime="0.00" timeLoss="9.11" rerouteNo="0" devices="tripinfo_randUni12682:1" vType="passenger5" speedFactor="0.99" vaporized=""/>
    <tripinfo id="randUni1008:1" depart="906.00" departLane="-30892#20_0" departPos="18.20" departSpeed="0.00" departDelay="-0.09" arrival="1058.60" arrivalLane="--31066#0_1" arrivalPos="2.36" arrivalSpeed="0.95" duration="152.60" routeLength="1378.02" waitingTime="19.00" waitingCount="1" stopTime="0.00" timeLoss="45.56" rerouteNo="0" devices="tripinfo_randUni1008:1" vType="passenger1" speedFactor="0.93" vaporized=""/>
    <tripinfo id="randUni1444:1" depart="949.00" departLane="--30348#4_0" departPos="35.12" departSpeed="0.00" departDelay="0.00" arrival="1073.50" arrivalLane="--30892#20_0" arrivalPos="3.54" arrivalSpeed="1.00" duration="124.50" routeLength="953.37" waitingTime="23.50" waitingCount="2" stopTime="0.00" timeLoss="46.37" rerouteNo="0" devices="tripinfo_randUni1444:1" vType="passenger2a" speedFactor="0.88" vaporized=""/>
    <tripinfo id="randUni5421:1" depart="987.40" departLane="-30892#20_0" departPos="11.39" departSpeed="0.00" departDelay="0.00" arrival="1091.40" arrivalLane="-31740#1_0" arrivalPos="16.55" arrivalSpeed="0.78" duration="104.00" routeLength="851.09" waitingTime="17.80" waitingCount="2" stopTime="0.00" timeLoss="38.55" rerouteNo="0" devices="tripinfo_randUni5421:1" vType="passenger2b" speedFactor="0.94" vaporized=""/>
    <tripinfo id="randUni7419:1" depart="983.00" departLane="-30892#20_0" departPos="12.90" departSpeed="0.00" departDelay="-0.09" arrival="1099.10" arrivalLane="-30892#26_0" arrivalPos="190.56" arrivalSpeed="1.02" duration="116.10" routeLength="1061.88" waitingTime="16.60" waitingCount="1" stopTime="0.00" timeLoss="34.90" rerouteNo="0" devices="tripinfo_randUni7419:1" vType="passenger1" speedFactor="0.94" vaporized=""/>
    <tripinfo id="randUni5536:1" depart="1161.50" departLane="-30552_0" departPos="33.15" departSpeed="0.00" departDelay="-0.05" arrival="1250.10" arrivalLane="--31340#0_0" arrivalPos="406.25" arrivalSpeed="1.10" duration="88.60" routeLength="1047.22" waitingTime="0.00" waitingCount="0" stopTime="0.00" timeLoss="23.51" rerouteNo="0" devices="tripinfo_randUni5536:1" vType="passenger5" speedFactor="1.16" vaporized=""/>
    <tripinfo id="randUni18554:1" depart="1207.30" departLane="--31066#8_0" departPos="55.88" departSpeed="0.00" departDelay="-0.07" arrival="1273.60" arrivalLane="--31066#6_0" arrivalPos="30.15" arrivalSpeed="1.03" duration="66.30" routeLength="817.11" waitingTime="0.00" waitingCount="0" stopTime="0.00" timeLoss="8.53" rerouteNo="0" devices="tripinfo_randUni18554:1" vType="passenger1" speedFactor="1.02" vaporized=""/>
    <tripinfo id="randUni5067:1" depart="1397.10" departLane="--32558_0" departPos="16.59" departSpeed="0.00" departDelay="-0.07" arrival="1412.00" arrivalLane="-30892#26_0" arrivalPos="108.21" arrivalSpeed="0.70" duration="14.90" routeLength="130.45" waitingTime="0.00" waitingCount="0" stopTime="0.00" timeLoss="3.53" rerouteNo="0" devices="tripinfo_randUni5067:1" vType="passenger2a" speedFactor="0.83" vaporized=""/>
    <tripinfo id="randUni9974:1" depart="1342.60" departLane="-30892#20_0" departPos="9.85" departSpeed="0.00" departDelay="-0.01" arrival="1441.60" arrivalLane="-30970#0_0" arrivalPos="15.02" arrivalSpeed="0.74" duration="99.00" routeLength="1057.98" waitingTime="0.00" waitingCount="0" stopTime="0.00" timeLoss="23.60" rerouteNo="0" devices="tripinfo_randUni9974:1" vType="passenger2b" speedFactor="1.01" vaporized=""/>
    <tripinfo id="randUni11209:1" depart="1363.30" departLane="-31340#0_0" departPos="402.15" departSpeed="0.00" departDelay="0.00" arrival="1443.30" arrivalLane="--30552_0" arrivalPos="81.19" arrivalSpeed="1.05" duration="80.00" routeLength="898.32" waitingTime="0.00" waitingCount="0" stopTime="0.00" timeLoss="13.68" rerouteNo="0" devices="tripinfo_randUni11209:1" vType="passenger2b" speedFactor="0.98" vaporized=""/>
    <tripinfo id="randUni16751:1" depart="1396.70" departLane="-30892#20_0" departPos="1.42" departSpeed="0.00" departDelay="-0.03" arrival="1473.70" arrivalLane="--30640#1_0" arrivalPos="20.36" arrivalSpeed="0.97" duration="77.00" routeLength="695.49" waitingTime="5.70" waitingCount="1" stopTime="0.00" timeLoss="20.72" rerouteNo="0" devices="tripinfo_randUni16751:1" vType="passenger4" speedFactor="0.89" vaporized=""/>
    <tripinfo id="randUni8293:1" depart="1466.00" departLane="--30640#0_0" departPos="40.49" departSpeed="0.00" departDelay="0.00" arrival="1551.50" arrivalLane="--30552_0" arrivalPos="35.83" arrivalSpeed="0.84" duration="85.50" routeLength="858.36" waitingTime="0.00" waitingCount="0" stopTime="0.00" timeLoss="14.69" rerouteNo="0" devices="tripinfo_randUni8293:1" vType="passenger1" speedFactor="0.87" vaporized=""/>
    <tripinfo id="randUni18499:1" depart="1537.00" departLane="-32914#1_0" departPos="5.46" departSpeed="0.00" departDelay="0.00" arrival="1579.60" arrivalLane="--30552_0" arrivalPos="42.35" arrivalSpeed="1.07" duration="42.60" routeLength="458.27" waitingTime="0.00" waitingCount="0" stopTime="0.00" timeLoss="7.68" rerouteNo="0" devices="tripinfo_randUni18499:1" vType="passenger1" speedFactor="0.95" vaporized=""/>
    <tripinfo id="randUni18419:1" depart="1477.50" departLane="--30892#26_0" departPos="88.90" departSpeed="0.00" departDelay="-0.03" arrival="1622.90" arrivalLane="--30552_0" arrivalPos="22.50" arrivalSpeed="1.10" duration="145.40" routeLength="1248.02" waitingTime="33.20" waitingCount="1" stopTime="0.00" timeLoss="47.45" rerouteNo="0" devices="tripinfo_randUni18419:1" vType="passenger2a" speedFactor="0.92" vaporized=""/>
    <tripinfo id="randUni17833:1" depart="1614.70" departLane="-30892#20_0" departPos="9.32" departSpeed="0.00" departDelay="0.00" arrival="1687.50" arrivalLane="--31066#6_0" arrivalPos="6.27" arrivalSpeed="0.71" duration="72.80" routeLength="811.22" waitingTime="0.00" waitingCount="0" stopTime="0.00" timeLoss="10.09" rerouteNo="0" devices="tripinfo_randUni17833:1" vType="passenger2a" speedFactor="0.93" vaporized=""/>
    <tripinfo id="randUni11061:1" depart="1587.90" departLane="--30892#26_0" departPos="22.95" departSpeed="0.00" departDelay="-0.02" arrival="1751.30" arrivalLane="-31066#8_1" arrivalPos="61.93" arrivalSpeed="1.02" duration="163.40" routeLength="1589.10" waitingTime="16.40" waitingCount="2" stopTime="0.00" timeLoss="62.32" rerouteNo="0" devices="tripinfo_randUni11061:1" vType="passenger4" speedFactor="1.13" vaporized=""/>
    <tripinfo id="randUni15024:1" depart="1744.40" departLane="-30552_0" departPos="25.01" departSpeed="0.00" departDelay="-0.09" arrival="1798.20" arrivalLane="--32984#0_0" arrivalPos="0.09" arrivalSpeed="0.91" duration="53.80" routeLength="661.71" waitingTime="0.00" waitingCount="0" stopTime="0.00" timeLoss="12.54" rerouteNo="0" devices="tripinfo_randUni15024:1" vType="passenger2a" speedFactor="1.15" vaporized=""/>
    <tripinfo id="randUni12109:1" depart="1721.60" departLane="-30892#20_0" departPos="30.71" departSpeed="0.00" departDelay="-0.07" arrival="1820.60" arrivalLane="-30892#26_0" arrivalPos="218.50" arrivalSpeed="1.06" duration="99.00" routeLength="1072.00" waitingTime="8.30" waitingCount="2" stopTime="0.00" timeLoss="33.52" rerouteNo="0" devices="tripinfo_randUni12109:1" vType="passenger4" speedFactor="1.18" vaporized=""/>
    <tripinfo id="randUni15028:1" depart="1746.00" departLane="--32918#0_0" departPos="7.35" departSpeed="0.00" departDelay="0.00" arrival="1879.30" arrivalLane="-32528#2_0" arrivalPos="0.11" arrivalSpeed="1.16" duration="133.30" routeLength="942.78" waitingTime="39.50" waitingCount="1" stopTime="0.00" timeLoss="65.78" rerouteNo="0" devices="tripinfo_randUni15028:1" vType="passenger1" speedFactor="1.01" vaporized=""/>
    <tripinfo id="randUni4895:1" depart="1853.00" departLane="--32874#0_0" departPos="12.89" departSpeed="0.00" departDelay="0.00" arrival="1889.80" arrivalLane="--30552_0" arrivalPos="18.40" arrivalSpeed="1.12" duration="36.80" routeLength="394.98" waitingTime="0.00" waitingCount="0" stopTime="0.00" timeLoss="8.07" rerouteNo="0" devices="tripinfo_randUni4895:1" vType="passenger1" speedFactor="0.99" vaporized=""/>
    <tripinfo id="randUni5874:1" depart="1815.60" departLane="-31340#0_0" departPos="412.83" departSpeed="0.00" departDelay="-0.07" arrival="1961.80" arrivalLane="-32558_1" arrivalPos="21.98" arrivalSpeed="0.76" duration="146.20" routeLength="1515.66" waitingTime="13.30" waitingCount="1" stopTime="0.00" timeLoss="53.02" rerouteNo="0" devices="tripinfo_randUni5874:1" vType="passenger2a" speedFactor="1.17" vaporized=""/>
    <tripinfo id="randUni4890:1" depart="1857.10" departLane="-31340#0_0" departPos="447.41" departSpeed="0.00" departDelay="-0.05" arrival="1969.30" arrivalLane="--30892#23_0" arrivalPos="3.38" arrivalSpeed="0.89" duration="112.20" routeLength="1221.38" waitingTime="9.20" waitingCount="1" stopTime="0.00" timeLoss="25.97" rerouteNo="0" devices="tripinfo_randUni4890:1" vType="passenger2a" speedFactor="1.02" vaporized=""/>
    <tripinfo id="randUni6332:1" depart="2360.50" departLane="--30892#26_0" departPos="222.24" departSpeed="0.00" departDelay="-0.01" arrival="2438.50" arrivalLane="--30892#20_0" arrivalPos="30.12" arrivalSpeed="0.73" duration="78.00" routeLength="902.87" waitingTime="8.00" waitingCount="1" stopTime="0.00" timeLoss="22.90" rerouteNo="0" devices="tripinfo_randUni6332:1" vType="passenger1" speedFactor="1.18" vaporized=""/>
    <tripinfo id="randUni18177:1" depart="2312.40" departLane="--30892#26_0" departPos="83.14" departSpeed="0.00" departDelay="-0.04" arrival="2445.80" arrivalLane="-31066#5_1" arrivalPos="50.34" arrivalSpeed="1.12" duration="133.40" routeLength="1478.72" waitingTime="7.90" waitingCount="1" stopTime="0.00" timeLoss="23.87" rerouteNo="0" devices="tripinfo_randUni18177:1" vType="passenger1" speedFactor="0.97" vaporized=""/>
    <tripinfo id="randUni15613:1" depart="2461.10" departLane="-30892#20_0" departPos="30.16" departSpeed="0.00" departDelay="-0.09" arrival="2572.70" arrivalLane="--31186#1_0" arrivalPos="50.92" arrivalSpeed="0.98" duration="111.60" routeLength="1332.98" waitingTime="0.00" waitingCount="0" stopTime="0.00" timeLoss="24.54" rerouteNo="0" devices="tripinfo_randUni15613:1" vType="passenger1" speedFactor="1.10" vaporized=""/>
    <tripinfo id="randUni12881:1" depart="2581.00" departLane="--30892#22_0" departPos="15.54" departSpeed="0.00" departDelay="0.00" arrival="2614.60" arrivalLane="--30892#20_0" arrivalPos="17.15" arrivalSpeed="0.73" duration="33.60" routeLength="296.85" waitingTime="0.00" waitingCount="0" stopTime="0.00" timeLoss="9.87" rerouteNo="0" devices="tripinfo_randUni12881:1" vType="passenger2b" speedFactor="0.90" vaporized=""/>
    <tripinfo id="randUni3822:1" depart="2647.30" departLane="--32558_0" departPos="7.25" departSpeed="0.00" departDelay="0.00" arrival="2672.50" arrivalLane="-30892#26_0" arrivalPos="161.58" arrivalSpeed="0.90" duration="25.20" routeLength="193.16" waitingTime="0.00" waitingCount="0" stopTime="0.00" timeLoss="10.67" rerouteNo="0" devices="tripinfo_randUni3822:1" vType="passenger1" speedFactor="0.96" vaporized=""/>
    <tripinfo id="randUni18802:1" depart="2621.00" departLane="-32914#1_0" departPos="12.97" departSpeed="0.00" departDelay="0.00" arrival="2697.10" arrivalLane="--31340#0_0" arrivalPos="605.64" arrivalSpeed="0.92" duration="76.10" routeLength="1018.24" waitingTime="0.00" waitingCount="0" stopTime="0.00" timeLoss="4.96" rerouteNo="0" devices="tripinfo_randUni18802:1" vType="passenger2b" speedFactor="1.03" vaporized=""/>
    <tripinfo id="randUni1025:1" depart="2725.00" departLane="--31066#3_0" departPos="75.32" departSpeed="0.00" departDelay="0.00" arrival="2812.00" arrivalLane="--30892#20_0" arrivalPos="10.67" arrivalSpeed="0.88" duration="87.00" routeLength="1119.86" waitingTime="0.00" waitingCount="0" stopTime="0.00" timeLoss="13.17" rerouteNo="0" devices="tripinfo_randUni1025:1" vType="passenger1" speedFactor="1.09" vaporized=""/>
    <tripinfo id="randUni12355:1" depart="2801.90" departLane="-30552_0" departPos="23.22" departSpeed="0.00" departDelay="-0.03" arrival="2912.40" arrivalLane="-30892#26_0" arrivalPos="171.17" arrivalSpeed="0.87" duration="110.50" routeLength="1371.63" waitingTime="0.00" waitingCount="0" stopTime="0.00" timeLoss="15.35" rerouteNo="0" devices="tripinfo_randUni12355:1" vType="passenger2b" speedFactor="1.04" vaporized=""/>
    <tripinfo id="randUni8128:1" depart="2824.00" departLane="--31948#0_0" departPos="18.50" departSpeed="0.00" departDelay="0.00" arrival="2933.70" arrivalLane="--31340#0_0" arrivalPos="276.00" arrivalSpeed="0.88" duration="109.70" routeLength="1374.42" waitingTime="0.00" waitingCount="0" stopTime="0.00" timeLoss="14.46" rerouteNo="0" devices="tripinfo_randUni8128:1" vType="passenger2b" speedFactor="1.04" vaporized=""/>
    <tripinfo id="randUni4891:1" depart="2863.00" departLane="-31066#2_0" departPos="2.35" departSpeed="0.00" departDelay="0.00" arrival="2964.80" arrivalLane="--30892#20_0" arrivalPos="8.39" arrivalSpeed="0.74" duration="101.80" routeLength="1185.63" waitingTime="0.00" waitingCount="0" stopTime="0.00" timeLoss="16.22" rerouteNo="0" devices="tripinfo_randUni4891:1" vType="passenger5" speedFactor="1.00" vaporized=""/>
    <tripinfo id="randUni660:1" depart="2862.50" departLane="-30892#20_0" departPos="22.36" departSpeed="0.00" departDelay="-0.08" arrival="2985.90" arrivalLane="--31340#0_0" arrivalPos="4.88" arrivalSpeed="1.13" duration="123.40" routeLength="1577.85" waitingTime="0.00" waitingCount="0" stopTime="0.00" timeLoss="19.00" rerouteNo="0" devices="tripinfo_randUni660:1" vType="passenger2a" speedFactor="1.09" vaporized=""/>
    <tripinfo id="randUni9525:1" depart="3152.10" departLane="-30552_0" departPos="73.70" departSpeed="0.00" departDelay="-0.03" arrival="3220.20" arrivalLane="-32332#0_0" arrivalPos="8.62" arrivalSpeed="0.83" duration="68.10" routeLength="595.35" waitingTime="1.70" waitingCount="1" stopTime="0.00" timeLoss="19.23" rerouteNo="0" devices="tripinfo_randUni9525:1" vType="passenger1" speedFactor="0.88" vaporized=""/>
    <tripinfo id="randUni14352:1" depart="3221.70" departLane="-31340#0_0" departPos="478.34" departSpeed="0.00" departDelay="-0.01" arrival="3268.40" arrivalLane="-31066#1_0" arrivalPos="1.69" arrivalSpeed="1.07" duration="46.70" routeLength="480.18" waitingTime="0.00" waitingCount="0" stopTime="0.00" timeLoss="6.05" rerouteNo="0" devices="tripinfo_randUni14352:1" vType="passenger1" speedFactor="0.85" vaporized=""/>
    <tripinfo id="randUni16659:1" depart="3149.00" departLane="-32874#2_0" departPos="57.19" departSpeed="0.00" departDelay="0.00" arrival="3278.80" arrivalLane="--30892#20_0" arrivalPos="23.86" arrivalSpeed="0.84" duration="129.80" routeLength="1154.19" waitingTime="12.20" waitingCount="1" stopTime="0.00" timeLoss="37.53" rerouteNo="0" devices="tripinfo_randUni16659:1" vType="passenger2a" speedFactor="0.90" vaporized=""/>
    <tripinfo id="randUni472:1" depart="3333.00" departLane="--30346#0_0" departPos="54.01" departSpeed="0.00" departDelay="0.00" arrival="3395.70" arrivalLane="--30892#20_0" arrivalPos="16.47" arrivalSpeed="0.74" duration="62.70" routeLength="579.81" waitingTime="2.40" waitingCount="1" stopTime="0.00" timeLoss="13.88" rerouteNo="0" devices="tripinfo_randUni472:1" vType="passenger1" speedFactor="0.85" vaporized=""/>
    <tripinfo id="randUni15698:1" depart="3471.00" departLane="--30892#20_0" departPos="14.24" departSpeed="0.00" departDelay="0.00" arrival="3473.80" arrivalLane="--30892#20_0" arrivalPos="21.22" arrivalSpeed="1.10" duration="2.80" routeLength="6.97" waitingTime="0.00" waitingCount="0" stopTime="0.00" timeLoss="2.38" rerouteNo="0" devices="tripinfo_randUni15698:1" vType="passenger1" speedFactor="1.17" vaporized=""/>
    <tripinfo id="randUni13708:1" depart="3633.00" departLane="-32874#1_0" departPos="29.13" departSpeed="0.00" departDelay="0.00" arrival="3759.20" arrivalLane="-31066#8_1" arrivalPos="186.78" arrivalSpeed="0.91" duration="126.20" routeLength="1196.27" waitingTime="21.90" waitingCount="1" stopTime="0.00" timeLoss="47.61" rerouteNo="0" devices="tripinfo_randUni13708:1" vType="passenger1" speedFactor="1.10" vaporized=""/>
    <tripinfo id="randUni5761:1" depart="3563.70" departLane="-31340#0_0" departPos="224.41" departSpeed="0.00" departDelay="-0.06" arrival="3785.20" arrivalLane="-32558_0" arrivalPos="11.65" arrivalSpeed="0.89" duration="221.50" routeLength="1810.25" waitingTime="63.30" waitingCount="2" stopTime="0.00" timeLoss="93.25" rerouteNo="0" devices="tripinfo_randUni5761:1" vType="passenger1" speedFactor="1.02" vaporized=""/>
    <tripinfo id="randUni17743:1" depart="3760.00" departLane="-31066#0_0" departPos="1.40" departSpeed="0.00" departDelay="0.00" arrival="3835.40" arrivalLane="--31340#0_0" arrivalPos="572.36" arrivalSpeed="0.73" duration="75.40" routeLength="883.49" waitingTime="0.00" waitingCount="0" stopTime="0.00" timeLoss="4.64" rerouteNo="0" devices="tripinfo_randUni17743:1" vType="passenger1" speedFactor="0.90" vaporized=""/>
    <tripinfo id="randUni17830:1" depart="3758.70" departLane="-30892#20_0" departPos="15.08" departSpeed="0.00" departDelay="-0.09" arrival="3880.70" arrivalLane="-30892#26_0" arrivalPos="72.62" arrivalSpeed="1.10" duration="122.00" routeLength="941.75" waitingTime="36.30" waitingCount="1" stopTime="0.00" timeLoss="53.94" rerouteNo="0" devices="tripinfo_randUni17830:1" vType="passenger1" speedFactor="1.00" vaporized=""/>
    <tripinfo id="randUni17538:1" depart="3749.50" departLane="--30892#26_0" departPos="167.55" departSpeed="0.00" departDelay="-0.05" arrival="3882.30" arrivalLane="--30892#20_0" arrivalPos="14.96" arrivalSpeed="0.75" duration="132.80" routeLength="942.39" waitingTime="43.90" waitingCount="2" stopTime="0.00" timeLoss="65.17" rerouteNo="0" devices="tripinfo_randUni17538:1" vType="passenger1" speedFactor="1.00" vaporized=""/>
    <tripinfo id="randUni15731:1" depart="3931.30" departLane="-30892#20_0" departPos="29.87" departSpeed="0.00" departDelay="-0.06" arrival="3999.90" arrivalLane="-32474#0_0" arrivalPos="2.39" arrivalSpeed="1.09" duration="68.60" routeLength="933.98" waitingTime="0.00" waitingCount="0" stopTime="0.00" timeLoss="9.75" rerouteNo="0" devices="tripinfo_randUni15731:1" vType="passenger1" speedFactor="1.14" vaporized=""/>
    <tripinfo id="randUni11606:1" depart="4021.00" departLane="-30552_0" departPos="55.02" departSpeed="0.00" departDelay="0.00" arrival="4061.00" arrivalLane="-31066#5_1" arrivalPos="3.99" arrivalSpeed="1.15" duration="40.00" routeLength="402.22" waitingTime="0.00" waitingCount="0" stopTime="0.00" timeLoss="10.14" rerouteNo="0" devices="tripinfo_randUni11606:1" vType="passenger1" speedFactor="0.97" vaporized=""/>
    <tripinfo id="randUni12113:1" depart="4062.40" departLane="--30892#26_0" departPos="84.11" departSpeed="0.00" departDelay="-0.04" arrival="4083.20" arrivalLane="-32558_1" arrivalPos="11.35" arrivalSpeed="0.94" duration="20.80" routeLength="191.80" waitingTime="0.00" waitingCount="0" stopTime="0.00" timeLoss="8.05" rerouteNo="0" devices="tripinfo_randUni12113:1" vType="passenger2b" speedFactor="1.08" vaporized=""/>
    <tripinfo id="randUni18470:1" depart="4070.10" departLane="-30892#20_0" departPos="31.24" departSpeed="0.00" departDelay="-0.04" arrival="4128.20" arrivalLane="-31948#0_0" arrivalPos="41.71" arrivalSpeed="1.00" duration="58.10" routeLength="763.24" waitingTime="0.00" waitingCount="0" stopTime="0.00" timeLoss="9.01" rerouteNo="0" devices="tripinfo_randUni18470:1" vType="passenger3" speedFactor="1.12" vaporized=""/>
    <tripinfo id="randUni15899:1" depart="4098.00" departLane="-31340#4_0" departPos="40.89" departSpeed="0.00" departDelay="0.00" arrival="4144.50" arrivalLane="--31340#0_0" arrivalPos="52.92" arrivalSpeed="0.74" duration="46.50" routeLength="506.54" waitingTime="0.00" waitingCount="0" stopTime="0.00" timeLoss="10.60" rerouteNo="0" devices="tripinfo_randUni15899:1" vType="passenger3" speedFactor="1.02" vaporized=""/>
    <tripinfo id="randUni7076:1" depart="3999.30" departLane="-30892#20_0" departPos="18.33" departSpeed="0.00" departDelay="-0.06" arrival="4146.30" arrivalLane="-30892#26_0" arrivalPos="10.32" arrivalSpeed="0.73" duration="147.00" routeLength="876.20" waitingTime="64.90" waitingCount="2" stopTime="0.00" timeLoss="85.37" rerouteNo="0" devices="tripinfo_randUni7076:1" vType="passenger2b" speedFactor="1.02" vaporized=""/>
    <tripinfo id="randUni16252:1" depart="4194.10" departLane="-31340#0_0" departPos="558.81" departSpeed="0.00" departDelay="-0.01" arrival="4249.60" arrivalLane="--31698_0" arrivalPos="14.16" arrivalSpeed="0.75" duration="55.50" routeLength="630.66" waitingTime="0.00" waitingCount="0" stopTime="0.00" timeLoss="7.08" rerouteNo="0" devices="tripinfo_randUni16252:1" vType="passenger2a" speedFactor="0.94" vaporized=""/>
    <tripinfo id="randUni3030:1" depart="4139.90" departLane="-30892#20_0" departPos="15.37" departSpeed="0.00" departDelay="-0.05" arrival="4254.50" arrivalLane="-32332#1_0" arrivalPos="128.33" arrivalSpeed="0.95" duration="114.60" routeLength="1267.54" waitingTime="0.00" waitingCount="0" stopTime="0.00" timeLoss="22.14" rerouteNo="0" devices="tripinfo_randUni3030:1" vType="passenger4" speedFactor="0.99" vaporized=""/>
    <tripinfo id="randUni8847:1" depart="4238.20" departLane="-31340#0_0" departPos="351.76" departSpeed="0.00" departDelay="-0.06" arrival="4412.40" arrivalLane="--30892#20_0" arrivalPos="5.55" arrivalSpeed="0.92" duration="174.20" routeLength="1833.37" waitingTime="5.40" waitingCount="1" stopTime="0.00" timeLoss="24.61" rerouteNo="0" devices="tripinfo_randUni8847:1" vType="passenger2a" speedFactor="0.88" vaporized=""/>
    <tripinfo id="randUni10370:1" depart="4341.50" departLane="--32558_0" departPos="25.23" departSpeed="0.00" departDelay="-0.02" arrival="4510.90" arrivalLane="--31340#0_0" arrivalPos="430.38" arrivalSpeed="1.10" duration="169.40" routeLength="1647.28" waitingTime="19.70" waitingCount="1" stopTime="0.00" timeLoss="38.63" rerouteNo="0" devices="tripinfo_randUni10370:1" vType="passenger2b" speedFactor="0.91" vaporized=""/>
    <tripinfo id="randUni8307:1" depart="4424.90" departLane="--30892#26_0" departPos="169.43" departSpeed="0.00" departDelay="-0.01" arrival="4524.80" arrivalLane="--30892#20_0" arrivalPos="4.04" arrivalSpeed="0.74" duration="99.90" routeLength="929.59" waitingTime="14.40" waitingCount="1" stopTime="0.00" timeLoss="26.73" rerouteNo="0" devices="tripinfo_randUni8307:1" vType="passenger1" speedFactor="0.91" vaporized=""/>